 vasp.6.4.1 05Apr23 (build Jan 13 2025 16:05:33) complex                        
  
 executed on             LinuxIFC date 2025.09.30  15:58:42
 running   64 mpi-ranks, on    1 nodes
 distrk:  each k-point on   16 cores,    4 groups
 distr:  one band on NCORE=  16 cores,    1 groups


--------------------------------------------------------------------------------------------------------


 INCAR:
   ALGO = All
   EDIFF = 1e-06
   EDIFFG = -0.02
   ENAUG = 1360
   ENCUT = 680.0
   IBRION = 2
   ISIF = 3
   ISMEAR = 0
   ISPIN = 1
   ISYM = 0
   KPAR = 4
   KSPACING = 0.5
   LAECHG = False
   LASPH = True
   LCHARG = True
   LELF = False
   LMAXMIX = 4
   LMIXTAU = True
   LORBIT = 11
   LREAL = Auto
   LVTOT = False
   LWAVE = True
   MAGMOM = 4*5.0 4*0.0
   METAGGA = R2scan
   NCORE = 32
   NELM = 500
   NSW = 250
   POTIM = 0.25
   PREC = Accurate
   SIGMA = 0.05
   TIME = 0.1

 POTCAR:    PAW_PBE Ni_pv 06Sep2000               
 POTCAR:    PAW_PBE O 08Apr2002                   
 -----------------------------------------------------------------------------
|                                                                             |
|           W    W    AA    RRRRR   N    N  II  N    N   GGGG   !!!           |
|           W    W   A  A   R    R  NN   N  II  NN   N  G    G  !!!           |
|           W    W  A    A  R    R  N N  N  II  N N  N  G       !!!           |
|           W WW W  AAAAAA  RRRRR   N  N N  II  N  N N  G  GGG   !            |
|           WW  WW  A    A  R   R   N   NN  II  N   NN  G    G                |
|           W    W  A    A  R    R  N    N  II  N    N   GGGG   !!!           |
|                                                                             |
|     The value NCORE = 32 specified in the INCAR file was overwritten,       |
|     because it was not compatible with the 16 processes available:          |
|     NCORE = 16                                                              |
|     was used instead, please check that this makes sense for your           |
|     machine.                                                                |
|                                                                             |
 -----------------------------------------------------------------------------

 POTCAR:    PAW_PBE Ni_pv 06Sep2000               
   SHA256 =  368cd815a19284a5fda64519f43fef792dad8376deb9e2da41aae78b997dc50e Ni_pv/POTCAR          
   COPYR  = (c) Copyright 06Sep2000 Georg Kresse                                                    
   COPYR  = This file is part of the software VASP. Any use, copying, and all other rights are regul
   COPYR  = If you do not have a valid VASP license, you may not use, copy or distribute this file. 
   VRHFIN =Ni:                                                                                      
   LEXCH  = PE                                                                                      
   EATOM  =  3501.1230 eV,  257.3253 Ry                                                             
                                                                                                    
   TITEL  = PAW_PBE Ni_pv 06Sep2000                                                                 
   LULTRA =        F    use ultrasoft PP ?                                                          
   IUNSCR =        1    unscreen: 0-lin 1-nonlin 2-no                                               
   RPACOR =    1.500    partial core radius                                                         
   POMASS =   58.690; ZVAL   =   16.000    mass and valenz                                          
   RCORE  =    2.000    outmost cutoff radius                                                       
   RWIGS  =    2.000; RWIGS  =    1.058    wigner-seitz radius (au A)                               
   ENMAX  =  367.986; ENMIN  =  275.989 eV                                                          
   RCLOC  =    1.301    cutoff for local pot                                                        
   LCOR   =        T    correct aug charges                                                         
   LPAW   =        T    paw PP                                                                      
   EAUG   =  703.443                                                                                
   DEXC   =    0.000                                                                                
   RMAX   =    2.041    core radius for proj-oper                                                   
   RAUG   =    1.300    factor for augmentation sphere                                              
   RDEP   =    2.103    radius for radial grids                                                     
   RDEPT  =    1.618    core radius for aug-charge                                                  
                                                                                                    
   Atomic configuration                                                                             
    8 entries                                                                                       
     n  l   j            E        occ.                                                              
     1  0  0.50     -8206.4253   2.0000                                                             
     2  0  0.50      -976.1748   2.0000                                                             
     2  1  1.50      -839.0571   6.0000                                                             
     3  0  0.50      -105.9991   2.0000                                                             
     3  1  1.50       -66.4603   6.0000                                                             
     3  2  2.50        -4.6458   9.0000                                                             
     4  0  0.50        -4.4926   1.0000                                                             
     4  3  2.50        -1.3606   0.0000                                                             
   Description                                                                                      
     l       E           TYP  RCUT    TYP  RCUT                                                     
     1    -66.4602962     23  1.700                                                                 
     1     -1.3605826     23  1.700                                                                 
     2     -4.6457867     23  2.000                                                                 
     2     -6.0063693     23  2.000                                                                 
     0     -4.4925576     23  1.900                                                                 
     0     16.3626226     23  1.900                                                                 
  local pseudopotential read in
  partial core-charges read in
  partial kinetic energy density read in
  atomic valenz-charges read in
  non local Contribution for L=           1  read in
    real space projection operators read in
  non local Contribution for L=           1  read in
    real space projection operators read in
  non local Contribution for L=           2  read in
    real space projection operators read in
  non local Contribution for L=           2  read in
    real space projection operators read in
  non local Contribution for L=           0  read in
    real space projection operators read in
  non local Contribution for L=           0  read in
    real space projection operators read in
    PAW grid and wavefunctions read in
 
   number of l-projection  operators is LMAX  =           6
   number of lm-projection operators is LMMAX =          18
 
 POTCAR:    PAW_PBE O 08Apr2002                   
   SHA256 =  818f92134a0a090dccd8ba1447fa70422a3b330e708bb4f08108d8ae51209ddf O/POTCAR              
   COPYR  = (c) Copyright 08Apr2002 Georg Kresse                                                    
   COPYR  = This file is part of the software VASP. Any use, copying, and all other rights are regul
   COPYR  = If you do not have a valid VASP license, you may not use, copy or distribute this file. 
   VRHFIN =O: s2p4                                                                                  
   LEXCH  = PE                                                                                      
   EATOM  =   432.3788 eV,   31.7789 Ry                                                             
                                                                                                    
   TITEL  = PAW_PBE O 08Apr2002                                                                     
   LULTRA =        F    use ultrasoft PP ?                                                          
   IUNSCR =        1    unscreen: 0-lin 1-nonlin 2-no                                               
   RPACOR =    1.200    partial core radius                                                         
   POMASS =   16.000; ZVAL   =    6.000    mass and valenz                                          
   RCORE  =    1.520    outmost cutoff radius                                                       
   RWIGS  =    1.550; RWIGS  =    0.820    wigner-seitz radius (au A)                               
   ENMAX  =  400.000; ENMIN  =  300.000 eV                                                          
   ICORE  =        2    local potential                                                             
   LCOR   =        T    correct aug charges                                                         
   LPAW   =        T    paw PP                                                                      
   EAUG   =  605.392                                                                                
   DEXC   =    0.000                                                                                
   RMAX   =    1.553    core radius for proj-oper                                                   
   RAUG   =    1.300    factor for augmentation sphere                                              
   RDEP   =    1.550    radius for radial grids                                                     
   RDEPT  =    1.329    core radius for aug-charge                                                  
                                                                                                    
   Atomic configuration                                                                             
    4 entries                                                                                       
     n  l   j            E        occ.                                                              
     1  0  0.50      -514.6923   2.0000                                                             
     2  0  0.50       -23.9615   2.0000                                                             
     2  1  0.50        -9.0305   4.0000                                                             
     3  2  1.50        -9.5241   0.0000                                                             
   Description                                                                                      
     l       E           TYP  RCUT    TYP  RCUT                                                     
     0    -23.9615318     23  1.200                                                                 
     0     -9.5240782     23  1.200                                                                 
     1     -9.0304911     23  1.520                                                                 
     1      8.1634956     23  1.520                                                                 
     2     -9.5240782      7  1.500                                                                 
  local pseudopotential read in
  partial core-charges read in
  partial kinetic energy density read in
  kinetic energy density of atom read in
  atomic valenz-charges read in
  non local Contribution for L=           0  read in
    real space projection operators read in
  non local Contribution for L=           0  read in
    real space projection operators read in
  non local Contribution for L=           1  read in
    real space projection operators read in
  non local Contribution for L=           1  read in
    real space projection operators read in
    PAW grid and wavefunctions read in
 
   number of l-projection  operators is LMAX  =           4
   number of lm-projection operators is LMMAX =           8
 
 -----------------------------------------------------------------------------
|                                                                             |
|               ----> ADVICE to this user running VASP <----                  |
|                                                                             |
|     You have a (more or less) 'small supercell' and for smaller cells       |
|     it is recommended to use the reciprocal-space projection scheme!        |
|     The real-space optimization is not efficient for small cells and it     |
|     is also less accurate ...                                               |
|     Therefore, set LREAL=.FALSE. in the INCAR file.                         |
|                                                                             |
 -----------------------------------------------------------------------------

 Optimization of the real space projectors (new method)

 maximal supplied QI-value         = 18.90
 optimisation between [QCUT,QGAM] = [ 13.23, 26.65] = [ 49.00,198.81] Ry 
 Optimized for a Real-space Cutoff    1.30 Angstroem

   l    n(q)    QCUT    max X(q) W(low)/X(q) W(high)/X(q)  e(spline) 
   1     10    13.228     2.836    0.11E-04    0.17E-04    0.86E-07
   1     10    13.228     4.023    0.30E-04    0.33E-04    0.16E-06
   2      9    13.228    73.368    0.18E-03    0.57E-04    0.22E-06
   2      9    13.228    69.010    0.19E-03    0.58E-04    0.22E-06
   0     10    13.228    54.797    0.47E-04    0.26E-04    0.17E-06
   0     10    13.228    24.266    0.36E-04    0.23E-04    0.15E-06
 Optimization of the real space projectors (new method)

 maximal supplied QI-value         = 24.76
 optimisation between [QCUT,QGAM] = [ 13.12, 26.49] = [ 48.21,196.48] Ry 
 Optimized for a Real-space Cutoff    1.12 Angstroem

   l    n(q)    QCUT    max X(q) W(low)/X(q) W(high)/X(q)  e(spline) 
   0      9    13.120    20.381    0.21E-03    0.13E-03    0.22E-06
   0      9    13.120    15.268    0.22E-03    0.14E-03    0.23E-06
   1      8    13.120     5.964    0.12E-03    0.26E-03    0.20E-06
   1      8    13.120     5.382    0.98E-04    0.22E-03    0.17E-06
  PAW_PBE Ni_pv 06Sep2000               :
 energy of atom  1       EATOM=-3501.1230
 kinetic energy error for atom=    0.0103 (will be added to EATOM!!)
  PAW_PBE O 08Apr2002                   :
 energy of atom  2       EATOM= -432.3788
 kinetic energy error for atom=    0.0105 (will be added to EATOM!!)
 
 
 POSCAR: Ni4 O4
  positions in direct lattice
  No initial velocities read in

 METAGGA = R2SCAN                                      LMAXTAU =  6    LMIXTAU =  T

 exchange correlation table for  LEXCH =        8
   RHO(1)=    0.500       N(1)  =     2000
   RHO(2)=  100.500       N(2)  =     4000
 


--------------------------------------------------------------------------------------------------------


 ion  position               nearest neighbor table
   1  0.000  0.000  0.000-   5 2.10   7 2.10   8 2.10   7 2.10   8 2.10   5 2.10
   2  0.000  0.500  0.500-   6 2.10   7 2.10   8 2.10   8 2.10   7 2.10   6 2.10
   3  0.500  0.000  0.500-   5 2.10   6 2.10   7 2.10   5 2.10   6 2.10   7 2.10
   4  0.500  0.500  0.000-   5 2.10   6 2.10   8 2.10   6 2.10   5 2.10   8 2.10
   5  0.500  0.000  0.000-   1 2.10   3 2.10   4 2.10   3 2.10   4 2.10   1 2.10
   6  0.500  0.500  0.500-   2 2.10   3 2.10   4 2.10   4 2.10   3 2.10   2 2.10
   7  0.000  0.000  0.500-   1 2.10   2 2.10   3 2.10   1 2.10   2 2.10   3 2.10
   8  0.000  0.500  0.000-   1 2.10   2 2.10   4 2.10   2 2.10   1 2.10   4 2.10
 

IMPORTANT INFORMATION: All symmetrisations will be switched off!
NOSYMM: (Re-)initialisation of all symmetry stuff for point group C_1.


----------------------------------------------------------------------------------------

                                     Primitive cell                                     

  volume of cell :      74.0880

  direct lattice vectors                    reciprocal lattice vectors
     4.200000000  0.000000000  0.000000000     0.238095238  0.000000000  0.000000000
     0.000000000  4.200000000  0.000000000     0.000000000  0.238095238  0.000000000
     0.000000000  0.000000000  4.200000000     0.000000000  0.000000000  0.238095238

  length of vectors
     4.200000000  4.200000000  4.200000000     0.238095238  0.238095238  0.238095238

  position of ions in fractional coordinates (direct lattice)
     0.000000000  0.000000000  0.000000000
     0.000000000  0.500000000  0.500000000
     0.500000000  0.000000000  0.500000000
     0.500000000  0.500000000  0.000000000
     0.500000000  0.000000000  0.000000000
     0.500000000  0.500000000  0.500000000
     0.000000000  0.000000000  0.500000000
     0.000000000  0.500000000  0.000000000

  ion indices of the primitive-cell ions
   primitive index   ion index
                 1           1
                 2           2
                 3           3
                 4           4
                 5           5
                 6           6
                 7           7
                 8           8

----------------------------------------------------------------------------------------

 
 -----------------------------------------------------------------------------
|                                                                             |
|           W    W    AA    RRRRR   N    N  II  N    N   GGGG   !!!           |
|           W    W   A  A   R    R  NN   N  II  NN   N  G    G  !!!           |
|           W    W  A    A  R    R  N N  N  II  N N  N  G       !!!           |
|           W WW W  AAAAAA  RRRRR   N  N N  II  N  N N  G  GGG   !            |
|           WW  WW  A    A  R   R   N   NN  II  N   NN  G    G                |
|           W    W  A    A  R    R  N    N  II  N    N   GGGG   !!!           |
|                                                                             |
|     The requested file  could not be found or opened for reading            |
|     k-point information. Automatic k-point generation is used as a          |
|     fallback, which may lead to unwanted results.                           |
|                                                                             |
 -----------------------------------------------------------------------------

 

Automatic generation of k-mesh.
 Grid dimensions derived from KSPACING:
 generate k-points for:    3    3    3

 Generating k-lattice:

  Cartesian coordinates                     Fractional coordinates (reciprocal lattice)
     0.079365079  0.000000000  0.000000000     0.333333333  0.000000000  0.000000000
     0.000000000  0.079365079  0.000000000     0.000000000  0.333333333  0.000000000
     0.000000000  0.000000000  0.079365079     0.000000000  0.000000000  0.333333333

  Length of vectors
     0.079365079  0.079365079  0.079365079

  Shift w.r.t. Gamma in fractional coordinates (k-lattice)
     0.000000000  0.000000000  0.000000000

 
 Subroutine IBZKPT returns following result:
 ===========================================
 
 Found     14 irreducible k-points:
 
 Following reciprocal coordinates:
            Coordinates               Weight
  0.000000  0.000000  0.000000      1.000000
  0.333333  0.000000  0.000000      2.000000
  0.000000  0.333333  0.000000      2.000000
  0.000000  0.000000  0.333333      2.000000
  0.333333  0.333333  0.000000      2.000000
  0.000000  0.333333  0.333333      2.000000
  0.333333  0.000000  0.333333      2.000000
 -0.333333  0.333333  0.000000      2.000000
 -0.333333  0.000000  0.333333      2.000000
  0.000000 -0.333333  0.333333      2.000000
  0.333333  0.333333  0.333333      2.000000
 -0.333333  0.333333  0.333333      2.000000
 -0.333333 -0.333333  0.333333      2.000000
  0.333333 -0.333333  0.333333      2.000000
 
 Following cartesian coordinates:
            Coordinates               Weight
  0.000000  0.000000  0.000000      1.000000
  0.079365  0.000000  0.000000      2.000000
  0.000000  0.079365  0.000000      2.000000
  0.000000  0.000000  0.079365      2.000000
  0.079365  0.079365  0.000000      2.000000
  0.000000  0.079365  0.079365      2.000000
  0.079365  0.000000  0.079365      2.000000
 -0.079365  0.079365  0.000000      2.000000
 -0.079365  0.000000  0.079365      2.000000
  0.000000 -0.079365  0.079365      2.000000
  0.079365  0.079365  0.079365      2.000000
 -0.079365  0.079365  0.079365      2.000000
 -0.079365 -0.079365  0.079365      2.000000
  0.079365 -0.079365  0.079365      2.000000
 


--------------------------------------------------------------------------------------------------------




 Dimension of arrays:
   k-points           NKPTS =     14   k-points in BZ     NKDIM =     14   number of bands    NBANDS=     52
   number of dos      NEDOS =    301   number of ions     NIONS =      8
   non local maximal  LDIM  =      6   non local SUM 2l+1 LMDIM =     18
   total plane-waves  NPLWV =  46656
   max r-space proj   IRMAX =   5875   max aug-charges    IRDMAX=  14102
   dimension x,y,z NGX =    36 NGY =   36 NGZ =   36
   dimension x,y,z NGXF=    72 NGYF=   72 NGZF=   72
   support grid    NGXF=    72 NGYF=   72 NGZF=   72
   ions per type =               4   4
   NGX,Y,Z   is equivalent  to a cutoff of  14.25, 14.25, 14.25 a.u.
   NGXF,Y,Z  is equivalent  to a cutoff of  28.50, 28.50, 28.50 a.u.

 SYSTEM =  unknown system                          
 POSCAR =  Ni4 O4                                  

 Startparameter for this run:
   NWRITE =      2    write-flag & timer
   PREC   = accura    normal or accurate (medium, high low for compatibility)
   ISTART =      0    job   : 0-new  1-cont  2-samecut
   ICHARG =      2    charge: 1-file 2-atom 10-const
   ISPIN  =      1    spin polarized calculation?
   LNONCOLLINEAR =      F non collinear calculations
   LSORBIT =      F    spin-orbit coupling
   INIWAV =      1    electr: 0-lowe 1-rand  2-diag
   LASPH  =      T    aspherical Exc in radial PAW
 Electronic Relaxation 1
   ENCUT  =  680.0 eV  49.98 Ry    7.07 a.u.   8.93  8.93  8.93*2*pi/ulx,y,z
   ENINI  =  680.0     initial cutoff
   ENAUG  = 1360.0 eV  augmentation charge cutoff
   NELM   =    500;   NELMIN=  2; NELMDL= -5     # of ELM steps 
   EDIFF  = 0.1E-05   stopping-criterion for ELM
   LREAL  =      T    real-space projection
   NLSPLINE    = F    spline interpolate recip. space projectors
   LCOMPAT=      F    compatible to vasp.4.4
   GGA_COMPAT  = T    GGA compatible to vasp.4.4-vasp.4.6
   LMAXPAW     = -100 max onsite density
   LMAXMIX     =    4 max onsite mixed and CHGCAR
   VOSKOWN=      0    Vosko Wilk Nusair interpolation
   ROPT   =   -0.00025  -0.00025
 Ionic relaxation
   EDIFFG = -.2E-01   stopping-criterion for IOM
   NSW    =    250    number of steps for IOM
   NBLOCK =      1;   KBLOCK =    250    inner block; outer block 
   IBRION =      2    ionic relax: 0-MD 1-quasi-New 2-CG
   NFREE  =      1    steps in history (QN), initial steepest desc. (CG)
   ISIF   =      3    stress and relaxation
   IWAVPR =     11    prediction:  0-non 1-charg 2-wave 3-comb
   ISYM   =      0    0-nonsym 1-usesym 2-fastsym
   LCORR  =      T    Harris-Foulkes like correction to forces

   POTIM  = 0.2500    time-step for ionic-motion
   TEIN   =    0.0    initial temperature
   TEBEG  =    0.0;   TEEND  =   0.0 temperature during run
   SMASS  =  -3.00    Nose mass-parameter (am)
   estimated Nose-frequenzy (Omega)   =  0.10E-29 period in steps = 0.25E+47 mass=  -0.403E-27a.u.
   SCALEE = 1.0000    scale energy and forces
   NPACO  =    256;   APACO  = 10.0  distance and # of slots for P.C.
   PSTRESS=    0.0 pullay stress

  Mass of Ions in am
   POMASS =  58.69 16.00
  Ionic Valenz
   ZVAL   =  16.00  6.00
  Atomic Wigner-Seitz radii
   RWIGS  =  -1.00 -1.00
  virtual crystal weights 
   VCA    =   1.00  1.00
   NELECT =      88.0000    total number of electrons
   NUPDOWN=      -1.0000    fix difference up-down

 DOS related values:
   EMIN   =  10.00;   EMAX   =-10.00  energy-range for DOS
   EFERMI =   0.00;   METHOD = LEGACY      
   ISMEAR =     0;   SIGMA  =   0.05  broadening in eV -4-tet -1-fermi 0-gaus

 Electronic relaxation 2 (details)
   IALGO  =     58    algorithm
   LDIAG  =      T    sub-space diagonalisation (order eigenvalues)
   LSUBROT=      F    optimize rotation matrix (better conditioning)
   TURBO    =      0    0=normal 1=particle mesh
   IRESTART =      0    0=no restart 2=restart with 2 vectors
   NREBOOT  =      0    no. of reboots
   NMIN     =      0    reboot dimension
   EREF     =   0.00    reference energy to select bands
   IMIX   =      4    mixing-type and parameters
     AMIX     =   0.40;   BMIX     =  1.00
     AMIX_MAG =   1.60;   BMIX_MAG =  1.00
     AMIN     =   0.10
     WC   =   100.;   INIMIX=   1;  MIXPRE=   1;  MAXMIX= -45

 Intra band minimization:
   WEIMIN = 0.0010     energy-eigenvalue tresh-hold
   EBREAK =  0.48E-08  absolut break condition
   DEPER  =   0.30     relativ break condition  

   TIME   =   0.10     timestep for ELM

  volume/ion in A,a.u.               =       9.26        62.50
  Fermi-wavevector in a.u.,A,eV,Ry     =   1.733750  3.276312 40.897595  3.005888
  Thomas-Fermi vector in A             =   2.807677
 
 Write flags
   LWAVE        =      T    write WAVECAR
   LDOWNSAMPLE  =      F    k-point downsampling of WAVECAR
   LCHARG       =      T    write CHGCAR
   LVTOT        =      F    write LOCPOT, total local potential
   LVHAR        =      F    write LOCPOT, Hartree potential only
   LELF         =      F    write electronic localiz. function (ELF)
   LORBIT       =     11    0 simple, 1 ext, 2 COOP (PROOUT), +10 PAW based schemes


 Dipole corrections
   LMONO  =      F    monopole corrections only (constant potential shift)
   LDIPOL =      F    correct potential (dipole corrections)
   IDIPOL =      0    1-x, 2-y, 3-z, 4-all directions 
   EPSILON=  1.0000000 bulk dielectric constant

 Exchange correlation treatment:
   GGA     =    --    GGA type
   LEXCH   =     8    internal setting for exchange type
   LIBXC   =     F    Libxc                    
   VOSKOWN =     0    Vosko Wilk Nusair interpolation
   LHFCALC =     F    Hartree Fock is set to
   LHFONE  =     F    Hartree Fock one center treatment
   AEXX    =    0.0000 exact exchange contribution

 Linear response parameters
   LEPSILON=     F    determine dielectric tensor
   LRPA    =     F    only Hartree local field effects (RPA)
   LNABLA  =     F    use nabla operator in PAW spheres
   LVEL    =     F    velocity operator in full k-point grid
   CSHIFT  =0.1000    complex shift for real part using Kramers Kronig
   OMEGAMAX=  -1.0    maximum frequency
   DEG_THRESHOLD= 0.2000000E-02 threshold for treating states as degnerate
   RTIME   =   -0.100 relaxation time in fs
  (WPLASMAI=    0.000 imaginary part of plasma frequency in eV, 0.658/RTIME)
   DFIELD  = 0.0000000 0.0000000 0.0000000 field for delta impulse in time
 
  Optional k-point grid parameters
   LKPOINTS_OPT  =     F    use optional k-point grid
   KPOINTS_OPT_MODE=     1    mode for optional k-point grid
 
 Orbital magnetization related:
   ORBITALMAG=     F  switch on orbital magnetization
   LCHIMAG   =     F  perturbation theory with respect to B field
   DQ        =  0.001000  dq finite difference perturbation B field
   LLRAUG    =     F  two centre corrections for induced B field
   LBONE     =     F  B-component reconstruction in AE one-centre
   LVGVCALC  =     T  calculate vGv susceptibility
   LVGVAPPL  =     F  apply vGv susceptibility instead of pGv for G=0

 Random number generation:
   RANDOM_GENERATOR = DEFAULT
   PCG_SEED         = not used


--------------------------------------------------------------------------------------------------------


 conjugate gradient relaxation of ions
 charge density and potential will be updated during run
 non-spin polarized calculation
 Conjugate gradient for all bands (Freysoldt, et al. PRB 79, 241103 (2009))
 preconditioned conjugated gradient                                        
 perform sub-space diagonalisation
    before iterative eigenvector-optimisation
 modified Broyden-mixing scheme, WC =      100.0
 initial mixing is a Kerker type mixing with AMIX =  0.4000 and BMIX =      1.0000
 Hartree-type preconditioning will be used
 using additional bands            8
 real space projection scheme for non local part
 use partial core corrections
 no Harris-corrections to forces 
 use gradient corrections 
 use of overlap-Matrix (Vanderbilt PP)
 Gauss-broadening in eV      SIGMA  =   0.05


--------------------------------------------------------------------------------------------------------


  energy-cutoff  :      680.00
  volume of cell :       74.09
      direct lattice vectors                 reciprocal lattice vectors
     4.200000000  0.000000000  0.000000000     0.238095238  0.000000000  0.000000000
     0.000000000  4.200000000  0.000000000     0.000000000  0.238095238  0.000000000
     0.000000000  0.000000000  4.200000000     0.000000000  0.000000000  0.238095238

  length of vectors
     4.200000000  4.200000000  4.200000000     0.238095238  0.238095238  0.238095238


 
 k-points in units of 2pi/SCALE and weight: read from INCAR                         
   0.00000000  0.00000000  0.00000000       0.037
   0.07936508  0.00000000  0.00000000       0.074
   0.00000000  0.07936508  0.00000000       0.074
   0.00000000  0.00000000  0.07936508       0.074
   0.07936508  0.07936508  0.00000000       0.074
   0.00000000  0.07936508  0.07936508       0.074
   0.07936508  0.00000000  0.07936508       0.074
  -0.07936508  0.07936508  0.00000000       0.074
  -0.07936508  0.00000000  0.07936508       0.074
   0.00000000 -0.07936508  0.07936508       0.074
   0.07936508  0.07936508  0.07936508       0.074
  -0.07936508  0.07936508  0.07936508       0.074
  -0.07936508 -0.07936508  0.07936508       0.074
   0.07936508 -0.07936508  0.07936508       0.074
 
 k-points in reciprocal lattice and weights: read from INCAR                         
   0.00000000  0.00000000  0.00000000       0.037
   0.33333333  0.00000000  0.00000000       0.074
   0.00000000  0.33333333  0.00000000       0.074
   0.00000000  0.00000000  0.33333333       0.074
   0.33333333  0.33333333  0.00000000       0.074
   0.00000000  0.33333333  0.33333333       0.074
   0.33333333  0.00000000  0.33333333       0.074
  -0.33333333  0.33333333  0.00000000       0.074
  -0.33333333  0.00000000  0.33333333       0.074
   0.00000000 -0.33333333  0.33333333       0.074
   0.33333333  0.33333333  0.33333333       0.074
  -0.33333333  0.33333333  0.33333333       0.074
  -0.33333333 -0.33333333  0.33333333       0.074
   0.33333333 -0.33333333  0.33333333       0.074
 
 position of ions in fractional coordinates (direct lattice) 
   0.00000000  0.00000000  0.00000000
   0.00000000  0.50000000  0.50000000
   0.50000000  0.00000000  0.50000000
   0.50000000  0.50000000  0.00000000
   0.50000000  0.00000000  0.00000000
   0.50000000  0.50000000  0.50000000
   0.00000000  0.00000000  0.50000000
   0.00000000  0.50000000  0.00000000
 
 position of ions in cartesian coordinates  (Angst):
   0.00000000  0.00000000  0.00000000
   0.00000000  2.10000000  2.10000000
   2.10000000  0.00000000  2.10000000
   2.10000000  2.10000000  0.00000000
   2.10000000  0.00000000  0.00000000
   2.10000000  2.10000000  2.10000000
   0.00000000  0.00000000  2.10000000
   0.00000000  2.10000000  0.00000000
 


--------------------------------------------------------------------------------------------------------


 k-point   1 :   0.0000 0.0000 0.0000  plane waves:    2945
 k-point   2 :   0.3333 0.0000 0.0000  plane waves:    2962
 k-point   3 :   0.0000 0.3333 0.0000  plane waves:    2962
 k-point   4 :   0.0000 0.0000 0.3333  plane waves:    2962
 k-point   5 :   0.3333 0.3333 0.0000  plane waves:    2984
 k-point   6 :   0.0000 0.3333 0.3333  plane waves:    2984
 k-point   7 :   0.3333 0.0000 0.3333  plane waves:    2984
 k-point   8 :  -0.3333 0.3333 0.0000  plane waves:    2984
 k-point   9 :  -0.3333 0.0000 0.3333  plane waves:    2984
 k-point  10 :   0.0000-0.3333 0.3333  plane waves:    2984
 k-point  11 :   0.3333 0.3333 0.3333  plane waves:    3007
 k-point  12 :  -0.3333 0.3333 0.3333  plane waves:    3007
 k-point  13 :  -0.3333-0.3333 0.3333  plane waves:    3007
 k-point  14 :   0.3333-0.3333 0.3333  plane waves:    3007

 maximum and minimum number of plane-waves per node :       203      172

 maximum number of plane-waves:      3007
 maximum index in each direction: 
   IXMAX=    9   IYMAX=    9   IZMAX=    8
   IXMIN=   -9   IYMIN=   -9   IZMIN=   -9


 real space projection operators:
  total allocation   :       4127.19 KBytes
  max/ min on nodes  :        423.97        165.12


 parallel 3D FFT for wavefunctions:
    minimum data exchange during FFTs selected (reduces bandwidth)
 parallel 3D FFT for charge:
    minimum data exchange during FFTs selected (reduces bandwidth)


 total amount of memory used by VASP MPI-rank0    41443. kBytes
=======================================================================

   base      :      30000. kBytes
   nonlr-proj:       1305. kBytes
   fftplans  :        988. kBytes
   grid      :       1974. kBytes
   one-center:         15. kBytes
   wavefun   :       7161. kBytes
 
     INWAV:  cpu time      0.0000: real time      0.0002
 Broyden mixing: mesh for mixing (old mesh)
   NGX = 17   NGY = 17   NGZ = 17
  (NGX  = 72   NGY  = 72   NGZ  = 72)
  gives a total of   4913 points

 initial charge density was supplied:
 charge density of overlapping atoms calculated
 number of electron      88.0000000 magnetization 
 keeping initial charge density in first step


--------------------------------------------------------------------------------------------------------


 Maximum index for non-local projection operator          726
 Maximum index for augmentation-charges         1170 (set IRDMAX)


--------------------------------------------------------------------------------------------------------


 First call to EWALD:  gamma=   0.422
 Maximum number of real-space cells 3x 3x 3
 Maximum number of reciprocal cells 3x 3x 3

    FEWALD:  cpu time      0.0028: real time      0.0028


--------------------------------------- Ionic step        1  -------------------------------------------




--------------------------------------- Iteration      1(   1)  ---------------------------------------


    POTLOK:  cpu time      0.0274: real time      0.0276
    SETDIJ:  cpu time      0.4373: real time      0.4396
    TRIAL :  cpu time      0.4075: real time      0.4102
    CORREC:  cpu time      0.0004: real time      0.0004
    --------------------------------------------
      LOOP:  cpu time      0.8748: real time      0.8803

 eigenvalue-minimisations  :  1576
 total energy-change (2. order) : 0.1455014E+04  (-0.6741090E+04)
 number of electron      88.0000000 magnetization 
 augmentation part       88.0000000 magnetization 

 Free energy of the ion-electron system (eV)
  ---------------------------------------------------
  alpha Z        PSCENC =       610.37134478
  Ewald energy   TEWEN  =    -10614.75848350
  -Hartree energ DENC   =     -4508.48294677
  -exchange      EXHF   =         0.00000000
  -V(xc)+E(xc)   XCENC  =       554.91677642
  PAW double counting   =     12948.23952123   -13534.01559188
  entropy T*S    EENTRO =        -0.00005273
  eigenvalues    EBANDS =       264.81940229
  atomic energy  EATOM  =     15733.92411038
  ---------------------------------------------------
  free energy    TOTEN  =      1455.01408022 eV

  energy without entropy =     1455.01413295  energy(sigma->0) =     1455.01410658


--------------------------------------------------------------------------------------------------------




--------------------------------------- Iteration      1(   2)  ---------------------------------------


    TRIAL :  cpu time      0.3643: real time      0.3667
    CORREC:  cpu time      0.0007: real time      0.0007
    --------------------------------------------
      LOOP:  cpu time      0.3664: real time      0.3694

 eigenvalue-minimisations  :  1460
 total energy-change (2. order) :-0.1403313E+04  (-0.1368469E+04)
 number of electron      88.0000000 magnetization 
 augmentation part       88.0000000 magnetization 

 Free energy of the ion-electron system (eV)
  ---------------------------------------------------
  alpha Z        PSCENC =       610.37134478
  Ewald energy   TEWEN  =    -10614.75848350
  -Hartree energ DENC   =     -4508.48294677
  -exchange      EXHF   =         0.00000000
  -V(xc)+E(xc)   XCENC  =       554.91677642
  PAW double counting   =     12948.23952123   -13534.01559188
  entropy T*S    EENTRO =        -0.00693909
  eigenvalues    EBANDS =     -1138.48623712
  atomic energy  EATOM  =     15733.92411038
  ---------------------------------------------------
  free energy    TOTEN  =        51.70155446 eV

  energy without entropy =       51.70849355  energy(sigma->0) =       51.70502400


--------------------------------------------------------------------------------------------------------




--------------------------------------- Iteration      1(   3)  ---------------------------------------


    TRIAL :  cpu time      0.4012: real time      0.4041
    CORREC:  cpu time      0.0005: real time      0.0005
    --------------------------------------------
      LOOP:  cpu time      0.4043: real time      0.4104

 eigenvalue-minimisations  :  1680
 total energy-change (2. order) :-0.1493955E+03  (-0.1430094E+03)
 number of electron      88.0000000 magnetization 
 augmentation part       88.0000000 magnetization 

 Free energy of the ion-electron system (eV)
  ---------------------------------------------------
  alpha Z        PSCENC =       610.37134478
  Ewald energy   TEWEN  =    -10614.75848350
  -Hartree energ DENC   =     -4508.48294677
  -exchange      EXHF   =         0.00000000
  -V(xc)+E(xc)   XCENC  =       554.91677642
  PAW double counting   =     12948.23952123   -13534.01559188
  entropy T*S    EENTRO =        -0.01670167
  eigenvalues    EBANDS =     -1287.87198124
  atomic energy  EATOM  =     15733.92411038
  ---------------------------------------------------
  free energy    TOTEN  =       -97.69395225 eV

  energy without entropy =      -97.67725058  energy(sigma->0) =      -97.68560142


--------------------------------------------------------------------------------------------------------




--------------------------------------- Iteration      1(   4)  ---------------------------------------


    TRIAL :  cpu time      0.3912: real time      0.3941
    CORREC:  cpu time      0.0005: real time      0.0005
    --------------------------------------------
      LOOP:  cpu time      0.3930: real time      0.4018

 eigenvalue-minimisations  :  1640
 total energy-change (2. order) :-0.8504045E+01  (-0.8325292E+01)
 number of electron      88.0000000 magnetization 
 augmentation part       88.0000000 magnetization 

 Free energy of the ion-electron system (eV)
  ---------------------------------------------------
  alpha Z        PSCENC =       610.37134478
  Ewald energy   TEWEN  =    -10614.75848350
  -Hartree energ DENC   =     -4508.48294677
  -exchange      EXHF   =         0.00000000
  -V(xc)+E(xc)   XCENC  =       554.91677642
  PAW double counting   =     12948.23952123   -13534.01559188
  entropy T*S    EENTRO =        -0.01179012
  eigenvalues    EBANDS =     -1296.38093778
  atomic energy  EATOM  =     15733.92411038
  ---------------------------------------------------
  free energy    TOTEN  =      -106.19799724 eV

  energy without entropy =     -106.18620712  energy(sigma->0) =     -106.19210218


--------------------------------------------------------------------------------------------------------




--------------------------------------- Iteration      1(   5)  ---------------------------------------


    TRIAL :  cpu time      0.3867: real time      0.3892
    CORREC:  cpu time      0.0004: real time      0.0004
    CHARGE:  cpu time      0.0453: real time      0.0457
    --------------------------------------------
      LOOP:  cpu time      0.4351: real time      0.4445

 eigenvalue-minimisations  :  1624
 total energy-change (2. order) :-0.2373470E+00  (-0.2364625E+00)
 number of electron      87.9999911 magnetization 
 augmentation part       38.6329300 magnetization 

 Free energy of the ion-electron system (eV)
  ---------------------------------------------------
  alpha Z        PSCENC =       610.37134478
  Ewald energy   TEWEN  =    -10614.75848350
  -Hartree energ DENC   =     -4508.48294677
  -exchange      EXHF   =         0.00000000
  -V(xc)+E(xc)   XCENC  =       554.91677642
  PAW double counting   =     12948.23952123   -13534.01559188
  entropy T*S    EENTRO =        -0.01180646
  eigenvalues    EBANDS =     -1296.61826846
  atomic energy  EATOM  =     15733.92411038
  ---------------------------------------------------
  free energy    TOTEN  =      -106.43534426 eV

  energy without entropy =     -106.42353780  energy(sigma->0) =     -106.42944103


--------------------------------------------------------------------------------------------------------




--------------------------------------- Iteration      1(   6)  ---------------------------------------


    POTLOK:  cpu time      0.0288: real time      0.0290
    SETDIJ:  cpu time      0.4437: real time      0.4462
    TRIAL :  cpu time      0.3272: real time      0.3296
    CORREC:  cpu time      0.5543: real time      0.5565
    CHARGE:  cpu time      0.0389: real time      0.0391
    --------------------------------------------
      LOOP:  cpu time      1.3955: real time      1.4107

 eigenvalue-minimisations  :     0
 total energy-change (2. order) : 0.6176362E+02  (-0.2782833E+02)
 number of electron      87.9999900 magnetization 
 augmentation part       40.8139086 magnetization 

 Free energy of the ion-electron system (eV)
  ---------------------------------------------------
  alpha Z        PSCENC =       610.37134478
  Ewald energy   TEWEN  =    -10614.75848350
  -Hartree energ DENC   =     -3999.76267031
  -exchange      EXHF   =         0.00000000
  -V(xc)+E(xc)   XCENC  =       547.05198525
  PAW double counting   =     13062.57584055   -13587.07071345
  entropy T*S    EENTRO =        -0.01582174
  eigenvalues    EBANDS =     -1796.99133582
  atomic energy  EATOM  =     15733.92411038
  ---------------------------------------------------
  free energy    TOTEN  =       -44.67172858 eV

  energy without entropy =      -44.65590684  energy(sigma->0) =      -44.66381771


--------------------------------------------------------------------------------------------------------




--------------------------------------- Iteration      1(   7)  ---------------------------------------


    POTLOK:  cpu time      0.0221: real time      0.0222
    SETDIJ:  cpu time      0.3649: real time      0.3663
    TRIAL :  cpu time      0.3068: real time      0.3092
    CORREC:  cpu time      0.5077: real time      0.5101
    CHARGE:  cpu time      0.0388: real time      0.0390
    --------------------------------------------
      LOOP:  cpu time      1.2421: real time      1.2527

 eigenvalue-minimisations  :     0
 total energy-change (2. order) :-0.2818393E+02  (-0.2957058E+01)
 number of electron      87.9999897 magnetization 
 augmentation part       40.6362763 magnetization 

 Free energy of the ion-electron system (eV)
  ---------------------------------------------------
  alpha Z        PSCENC =       610.37134478
  Ewald energy   TEWEN  =    -10614.75848350
  -Hartree energ DENC   =     -4397.91660373
  -exchange      EXHF   =         0.00000000
  -V(xc)+E(xc)   XCENC  =       561.26919256
  PAW double counting   =     14365.28237064   -14984.68768289
  entropy T*S    EENTRO =        -0.01821278
  eigenvalues    EBANDS =     -1346.32408665
  atomic energy  EATOM  =     15733.92411038
  ---------------------------------------------------
  free energy    TOTEN  =       -72.85566016 eV

  energy without entropy =      -72.83744738  energy(sigma->0) =      -72.84655377


--------------------------------------------------------------------------------------------------------




--------------------------------------- Iteration      1(   8)  ---------------------------------------


    POTLOK:  cpu time      0.0221: real time      0.0222
    SETDIJ:  cpu time      0.3643: real time      0.3654
    TRIAL :  cpu time      0.3012: real time      0.3035
    CORREC:  cpu time      0.5103: real time      0.5126
    CHARGE:  cpu time      0.0392: real time      0.0394
    --------------------------------------------
      LOOP:  cpu time      1.2383: real time      1.2486

 eigenvalue-minimisations  :     0
 total energy-change (2. order) :-0.2970752E+01  (-0.9008674E+00)
 number of electron      87.9999896 magnetization 
 augmentation part       40.4901956 magnetization 

 Free energy of the ion-electron system (eV)
  ---------------------------------------------------
  alpha Z        PSCENC =       610.37134478
  Ewald energy   TEWEN  =    -10614.75848350
  -Hartree energ DENC   =     -4406.87178689
  -exchange      EXHF   =         0.00000000
  -V(xc)+E(xc)   XCENC  =       559.20632376
  PAW double counting   =     14472.51548827   -15084.48890304
  entropy T*S    EENTRO =        -0.01947284
  eigenvalues    EBANDS =     -1345.70629288
  atomic energy  EATOM  =     15733.92411038
  ---------------------------------------------------
  free energy    TOTEN  =       -75.82641189 eV

  energy without entropy =      -75.80693905  energy(sigma->0) =      -75.81667547


--------------------------------------------------------------------------------------------------------




--------------------------------------- Iteration      1(   9)  ---------------------------------------


    POTLOK:  cpu time      0.0220: real time      0.0222
    SETDIJ:  cpu time      0.3642: real time      0.3654
    TRIAL :  cpu time      0.2950: real time      0.2972
    CORREC:  cpu time      0.5060: real time      0.5083
    CHARGE:  cpu time      0.0388: real time      0.0391
    --------------------------------------------
      LOOP:  cpu time      1.2265: real time      1.2370

 eigenvalue-minimisations  :     0
 total energy-change (2. order) :-0.9692945E+00  (-0.2918274E+00)
 number of electron      87.9999895 magnetization 
 augmentation part       40.4965369 magnetization 

 Free energy of the ion-electron system (eV)
  ---------------------------------------------------
  alpha Z        PSCENC =       610.37134478
  Ewald energy   TEWEN  =    -10614.75848350
  -Hartree energ DENC   =     -4401.42820210
  -exchange      EXHF   =         0.00000000
  -V(xc)+E(xc)   XCENC  =       558.24653722
  PAW double counting   =     14294.88503326   -14895.02755598
  entropy T*S    EENTRO =        -0.01892932
  eigenvalues    EBANDS =     -1362.98901762
  atomic energy  EATOM  =     15733.92411038
  ---------------------------------------------------
  free energy    TOTEN  =       -76.79570640 eV

  energy without entropy =      -76.77677708  energy(sigma->0) =      -76.78624174


--------------------------------------------------------------------------------------------------------




--------------------------------------- Iteration      1(  10)  ---------------------------------------


    POTLOK:  cpu time      0.0218: real time      0.0221
    SETDIJ:  cpu time      0.3644: real time      0.3655
    TRIAL :  cpu time      0.3013: real time      0.3041
    CORREC:  cpu time      0.5433: real time      0.5458
    CHARGE:  cpu time      0.0663: real time      0.0667
    --------------------------------------------
      LOOP:  cpu time      1.2977: real time      1.3089

 eigenvalue-minimisations  :     0
 total energy-change (2. order) :-0.2917566E+00  (-0.2731768E+00)
 number of electron      87.9999894 magnetization 
 augmentation part       40.5482379 magnetization 

 Free energy of the ion-electron system (eV)
  ---------------------------------------------------
  alpha Z        PSCENC =       610.37134478
  Ewald energy   TEWEN  =    -10614.75848350
  -Hartree energ DENC   =     -4407.28061453
  -exchange      EXHF   =         0.00000000
  -V(xc)+E(xc)   XCENC  =       558.55063764
  PAW double counting   =     14231.48401780   -14828.64308671
  entropy T*S    EENTRO =        -0.01950588
  eigenvalues    EBANDS =     -1360.71645953
  atomic energy  EATOM  =     15733.92411038
  ---------------------------------------------------
  free energy    TOTEN  =       -77.08746301 eV

  energy without entropy =      -77.06795713  energy(sigma->0) =      -77.07771007


--------------------------------------------------------------------------------------------------------




--------------------------------------- Iteration      1(  11)  ---------------------------------------


    POTLOK:  cpu time      0.0217: real time      0.0218
    SETDIJ:  cpu time      0.3631: real time      0.3644
    TRIAL :  cpu time      0.3010: real time      0.3034
    CORREC:  cpu time      0.5089: real time      0.5113
    CHARGE:  cpu time      0.0394: real time      0.0396
    --------------------------------------------
      LOOP:  cpu time      1.2346: real time      1.2458

 eigenvalue-minimisations  :     0
 total energy-change (2. order) :-0.2757434E+00  (-0.5496717E-01)
 number of electron      87.9999894 magnetization 
 augmentation part       40.5779649 magnetization 

 Free energy of the ion-electron system (eV)
  ---------------------------------------------------
  alpha Z        PSCENC =       610.37134478
  Ewald energy   TEWEN  =    -10614.75848350
  -Hartree energ DENC   =     -4420.99699053
  -exchange      EXHF   =         0.00000000
  -V(xc)+E(xc)   XCENC  =       559.31245319
  PAW double counting   =     14181.86173293   -14776.70029707
  entropy T*S    EENTRO =        -0.01958871
  eigenvalues    EBANDS =     -1350.35757067
  atomic energy  EATOM  =     15733.92411038
  ---------------------------------------------------
  free energy    TOTEN  =       -77.36320638 eV

  energy without entropy =      -77.34361767  energy(sigma->0) =      -77.35341202


--------------------------------------------------------------------------------------------------------




--------------------------------------- Iteration      1(  12)  ---------------------------------------


    POTLOK:  cpu time      0.0217: real time      0.0218
    SETDIJ:  cpu time      0.3641: real time      0.3653
    TRIAL :  cpu time      0.2955: real time      0.2978
    CORREC:  cpu time      0.5071: real time      0.5094
    CHARGE:  cpu time      0.0390: real time      0.0392
    --------------------------------------------
      LOOP:  cpu time      1.2278: real time      1.2382

 eigenvalue-minimisations  :     0
 total energy-change (2. order) :-0.5774214E-01  (-0.7412750E-01)
 number of electron      87.9999893 magnetization 
 augmentation part       40.6456657 magnetization 

 Free energy of the ion-electron system (eV)
  ---------------------------------------------------
  alpha Z        PSCENC =       610.37134478
  Ewald energy   TEWEN  =    -10614.75848350
  -Hartree energ DENC   =     -4426.98390613
  -exchange      EXHF   =         0.00000000
  -V(xc)+E(xc)   XCENC  =       559.59498463
  PAW double counting   =     14189.70766911   -14784.83116280
  entropy T*S    EENTRO =        -0.01962140
  eigenvalues    EBANDS =     -1344.42591628
  atomic energy  EATOM  =     15733.92411038
  ---------------------------------------------------
  free energy    TOTEN  =       -77.42094851 eV

  energy without entropy =      -77.40132711  energy(sigma->0) =      -77.41113781


--------------------------------------------------------------------------------------------------------




--------------------------------------- Iteration      1(  13)  ---------------------------------------


    POTLOK:  cpu time      0.0217: real time      0.0219
    SETDIJ:  cpu time      0.3628: real time      0.3642
    TRIAL :  cpu time      0.3007: real time      0.3029
    CORREC:  cpu time      0.5090: real time      0.5114
    CHARGE:  cpu time      0.0391: real time      0.0393
    --------------------------------------------
      LOOP:  cpu time      1.2338: real time      1.2447

 eigenvalue-minimisations  :     0
 total energy-change (2. order) :-0.7426758E-01  (-0.2029149E-01)
 number of electron      87.9999893 magnetization 
 augmentation part       40.6519667 magnetization 

 Free energy of the ion-electron system (eV)
  ---------------------------------------------------
  alpha Z        PSCENC =       610.37134478
  Ewald energy   TEWEN  =    -10614.75848350
  -Hartree energ DENC   =     -4439.84789214
  -exchange      EXHF   =         0.00000000
  -V(xc)+E(xc)   XCENC  =       560.14111729
  PAW double counting   =     14226.50580968   -14822.98533744
  entropy T*S    EENTRO =        -0.01974710
  eigenvalues    EBANDS =     -1330.82626374
  atomic energy  EATOM  =     15733.92411038
  ---------------------------------------------------
  free energy    TOTEN  =       -77.49521609 eV

  energy without entropy =      -77.47546898  energy(sigma->0) =      -77.48534254


--------------------------------------------------------------------------------------------------------




--------------------------------------- Iteration      1(  14)  ---------------------------------------


    POTLOK:  cpu time      0.0223: real time      0.0225
    SETDIJ:  cpu time      0.3641: real time      0.3654
    TRIAL :  cpu time      0.3003: real time      0.3026
    CORREC:  cpu time      0.5066: real time      0.5089
    CHARGE:  cpu time      0.0390: real time      0.0392
    --------------------------------------------
      LOOP:  cpu time      1.2329: real time      1.2441

 eigenvalue-minimisations  :     0
 total energy-change (2. order) :-0.1925207E-01  (-0.2255368E-01)
 number of electron      87.9999893 magnetization 
 augmentation part       40.6221710 magnetization 

 Free energy of the ion-electron system (eV)
  ---------------------------------------------------
  alpha Z        PSCENC =       610.37134478
  Ewald energy   TEWEN  =    -10614.75848350
  -Hartree energ DENC   =     -4440.95152435
  -exchange      EXHF   =         0.00000000
  -V(xc)+E(xc)   XCENC  =       560.16675746
  PAW double counting   =     14231.77451315   -14828.28129800
  entropy T*S    EENTRO =        -0.01972310
  eigenvalues    EBANDS =     -1329.74014097
  atomic energy  EATOM  =     15733.92411038
  ---------------------------------------------------
  free energy    TOTEN  =       -77.51446816 eV

  energy without entropy =      -77.49474506  energy(sigma->0) =      -77.50460661


--------------------------------------------------------------------------------------------------------




--------------------------------------- Iteration      1(  15)  ---------------------------------------


    POTLOK:  cpu time      0.0215: real time      0.0217
    SETDIJ:  cpu time      0.3619: real time      0.3633
    TRIAL :  cpu time      0.3006: real time      0.3029
    CORREC:  cpu time      0.5091: real time      0.5114
    CHARGE:  cpu time      0.0391: real time      0.0394
    --------------------------------------------
      LOOP:  cpu time      1.2328: real time      1.2445

 eigenvalue-minimisations  :     0
 total energy-change (2. order) :-0.2257076E-01  (-0.8272972E-02)
 number of electron      87.9999892 magnetization 
 augmentation part       40.6133490 magnetization 

 Free energy of the ion-electron system (eV)
  ---------------------------------------------------
  alpha Z        PSCENC =       610.37134478
  Ewald energy   TEWEN  =    -10614.75848350
  -Hartree energ DENC   =     -4434.78477398
  -exchange      EXHF   =         0.00000000
  -V(xc)+E(xc)   XCENC  =       559.82574545
  PAW double counting   =     14219.36723287   -14814.78009091
  entropy T*S    EENTRO =        -0.01979503
  eigenvalues    EBANDS =     -1336.68240090
  atomic energy  EATOM  =     15733.92411038
  ---------------------------------------------------
  free energy    TOTEN  =       -77.53703892 eV

  energy without entropy =      -77.51724389  energy(sigma->0) =      -77.52714140


--------------------------------------------------------------------------------------------------------




--------------------------------------- Iteration      1(  16)  ---------------------------------------


    POTLOK:  cpu time      0.0216: real time      0.0217
    SETDIJ:  cpu time      0.3645: real time      0.3656
    TRIAL :  cpu time      0.3046: real time      0.3070
    CORREC:  cpu time      0.5077: real time      0.5097
    CHARGE:  cpu time      0.0395: real time      0.0398
    --------------------------------------------
      LOOP:  cpu time      1.2384: real time      1.2493

 eigenvalue-minimisations  :     0
 total energy-change (2. order) :-0.8506600E-02  (-0.2576155E-02)
 number of electron      87.9999892 magnetization 
 augmentation part       40.6217075 magnetization 

 Free energy of the ion-electron system (eV)
  ---------------------------------------------------
  alpha Z        PSCENC =       610.37134478
  Ewald energy   TEWEN  =    -10614.75848350
  -Hartree energ DENC   =     -4432.80167381
  -exchange      EXHF   =         0.00000000
  -V(xc)+E(xc)   XCENC  =       559.70769289
  PAW double counting   =     14216.36925302   -14811.54519443
  entropy T*S    EENTRO =        -0.01979711
  eigenvalues    EBANDS =     -1338.79279981
  atomic energy  EATOM  =     15733.92411038
  ---------------------------------------------------
  free energy    TOTEN  =       -77.54554552 eV

  energy without entropy =      -77.52574840  energy(sigma->0) =      -77.53564696


--------------------------------------------------------------------------------------------------------




--------------------------------------- Iteration      1(  17)  ---------------------------------------


    POTLOK:  cpu time      0.0217: real time      0.0219
    SETDIJ:  cpu time      0.3635: real time      0.3646
    TRIAL :  cpu time      0.3028: real time      0.3062
    CORREC:  cpu time      0.5058: real time      0.5088
    CHARGE:  cpu time      0.0388: real time      0.0390
    --------------------------------------------
      LOOP:  cpu time      1.2330: real time      1.2462

 eigenvalue-minimisations  :     0
 total energy-change (2. order) :-0.2569669E-02  (-0.2489093E-02)
 number of electron      87.9999892 magnetization 
 augmentation part       40.6318571 magnetization 

 Free energy of the ion-electron system (eV)
  ---------------------------------------------------
  alpha Z        PSCENC =       610.37134478
  Ewald energy   TEWEN  =    -10614.75848350
  -Hartree energ DENC   =     -4434.09979916
  -exchange      EXHF   =         0.00000000
  -V(xc)+E(xc)   XCENC  =       559.75181908
  PAW double counting   =     14221.53076461   -14817.19359625
  entropy T*S    EENTRO =        -0.01982252
  eigenvalues    EBANDS =     -1337.05447800
  atomic energy  EATOM  =     15733.92411038
  ---------------------------------------------------
  free energy    TOTEN  =       -77.54811518 eV

  energy without entropy =      -77.52829267  energy(sigma->0) =      -77.53820392


--------------------------------------------------------------------------------------------------------




--------------------------------------- Iteration      1(  18)  ---------------------------------------


    POTLOK:  cpu time      0.0216: real time      0.0218
    SETDIJ:  cpu time      0.3644: real time      0.3658
    TRIAL :  cpu time      0.3007: real time      0.3046
    CORREC:  cpu time      0.5211: real time      0.5235
    CHARGE:  cpu time      0.0725: real time      0.0729
    --------------------------------------------
      LOOP:  cpu time      1.2808: real time      1.2938

 eigenvalue-minimisations  :     0
 total energy-change (2. order) :-0.2482689E-02  (-0.7454317E-03)
 number of electron      87.9999892 magnetization 
 augmentation part       40.6293720 magnetization 

 Free energy of the ion-electron system (eV)
  ---------------------------------------------------
  alpha Z        PSCENC =       610.37134478
  Ewald energy   TEWEN  =    -10614.75848350
  -Hartree energ DENC   =     -4435.65877540
  -exchange      EXHF   =         0.00000000
  -V(xc)+E(xc)   XCENC  =       559.81139474
  PAW double counting   =     14226.89175343   -14823.14600498
  entropy T*S    EENTRO =        -0.01982782
  eigenvalues    EBANDS =     -1334.96611480
  atomic energy  EATOM  =     15733.92411038
  ---------------------------------------------------
  free energy    TOTEN  =       -77.55059787 eV

  energy without entropy =      -77.53077005  energy(sigma->0) =      -77.54068396


--------------------------------------------------------------------------------------------------------




--------------------------------------- Iteration      1(  19)  ---------------------------------------


    POTLOK:  cpu time      0.0216: real time      0.0217
    SETDIJ:  cpu time      0.3651: real time      0.3664
    TRIAL :  cpu time      0.3001: real time      0.3025
    CORREC:  cpu time      0.5079: real time      0.5103
    CHARGE:  cpu time      0.0394: real time      0.0396
    --------------------------------------------
      LOOP:  cpu time      1.2346: real time      1.2476

 eigenvalue-minimisations  :     0
 total energy-change (2. order) :-0.7457486E-03  (-0.9393011E-03)
 number of electron      87.9999892 magnetization 
 augmentation part       40.6215610 magnetization 

 Free energy of the ion-electron system (eV)
  ---------------------------------------------------
  alpha Z        PSCENC =       610.37134478
  Ewald energy   TEWEN  =    -10614.75848350
  -Hartree energ DENC   =     -4435.04393345
  -exchange      EXHF   =         0.00000000
  -V(xc)+E(xc)   XCENC  =       559.79193280
  PAW double counting   =     14223.73215002   -14819.92082676
  entropy T*S    EENTRO =        -0.01983967
  eigenvalues    EBANDS =     -1335.62781007
  atomic energy  EATOM  =     15733.92411038
  ---------------------------------------------------
  free energy    TOTEN  =       -77.55134362 eV

  energy without entropy =      -77.53150396  energy(sigma->0) =      -77.54142379


--------------------------------------------------------------------------------------------------------




--------------------------------------- Iteration      1(  20)  ---------------------------------------


    POTLOK:  cpu time      0.0216: real time      0.0217
    SETDIJ:  cpu time      0.3633: real time      0.3646
    TRIAL :  cpu time      0.2999: real time      0.3022
    CORREC:  cpu time      0.5050: real time      0.5072
    CHARGE:  cpu time      0.0388: real time      0.0390
    --------------------------------------------
      LOOP:  cpu time      1.2298: real time      1.2394

 eigenvalue-minimisations  :     0
 total energy-change (2. order) :-0.9269383E-03  (-0.1643887E-03)
 number of electron      87.9999892 magnetization 
 augmentation part       40.6214534 magnetization 

 Free energy of the ion-electron system (eV)
  ---------------------------------------------------
  alpha Z        PSCENC =       610.37134478
  Ewald energy   TEWEN  =    -10614.75848350
  -Hartree energ DENC   =     -4433.36265043
  -exchange      EXHF   =         0.00000000
  -V(xc)+E(xc)   XCENC  =       559.73661110
  PAW double counting   =     14215.86323954   -14811.75922231
  entropy T*S    EENTRO =        -0.01984127
  eigenvalues    EBANDS =     -1337.54738045
  atomic energy  EATOM  =     15733.92411038
  ---------------------------------------------------
  free energy    TOTEN  =       -77.55227056 eV

  energy without entropy =      -77.53242929  energy(sigma->0) =      -77.54234992


--------------------------------------------------------------------------------------------------------




--------------------------------------- Iteration      1(  21)  ---------------------------------------


    POTLOK:  cpu time      0.0217: real time      0.0219
    SETDIJ:  cpu time      0.3644: real time      0.3658
    TRIAL :  cpu time      0.3006: real time      0.3028
    CORREC:  cpu time      0.5073: real time      0.5097
    CHARGE:  cpu time      0.0391: real time      0.0393
    --------------------------------------------
      LOOP:  cpu time      1.2336: real time      1.2456

 eigenvalue-minimisations  :     0
 total energy-change (2. order) :-0.1628611E-03  (-0.3169642E-03)
 number of electron      87.9999892 magnetization 
 augmentation part       40.6246933 magnetization 

 Free energy of the ion-electron system (eV)
  ---------------------------------------------------
  alpha Z        PSCENC =       610.37134478
  Ewald energy   TEWEN  =    -10614.75848350
  -Hartree energ DENC   =     -4433.33358090
  -exchange      EXHF   =         0.00000000
  -V(xc)+E(xc)   XCENC  =       559.73736301
  PAW double counting   =     14215.65577000   -14811.54931440
  entropy T*S    EENTRO =        -0.01984159
  eigenvalues    EBANDS =     -1337.57980151
  atomic energy  EATOM  =     15733.92411038
  ---------------------------------------------------
  free energy    TOTEN  =       -77.55243342 eV

  energy without entropy =      -77.53259183  energy(sigma->0) =      -77.54251263


--------------------------------------------------------------------------------------------------------




--------------------------------------- Iteration      1(  22)  ---------------------------------------


    POTLOK:  cpu time      0.0216: real time      0.0217
    SETDIJ:  cpu time      0.3622: real time      0.3633
    TRIAL :  cpu time      0.3012: real time      0.3034
    CORREC:  cpu time      0.5051: real time      0.5072
    CHARGE:  cpu time      0.0386: real time      0.0388
    --------------------------------------------
      LOOP:  cpu time      1.2293: real time      1.2395

 eigenvalue-minimisations  :     0
 total energy-change (2. order) :-0.3414821E-03  (-0.1044767E-03)
 number of electron      87.9999892 magnetization 
 augmentation part       40.6254816 magnetization 

 Free energy of the ion-electron system (eV)
  ---------------------------------------------------
  alpha Z        PSCENC =       610.37134478
  Ewald energy   TEWEN  =    -10614.75848350
  -Hartree energ DENC   =     -4433.99780986
  -exchange      EXHF   =         0.00000000
  -V(xc)+E(xc)   XCENC  =       559.76600368
  PAW double counting   =     14218.63380086   -14814.65628833
  entropy T*S    EENTRO =        -0.01984468
  eigenvalues    EBANDS =     -1336.81561132
  atomic energy  EATOM  =     15733.92411038
  ---------------------------------------------------
  free energy    TOTEN  =       -77.55277490 eV

  energy without entropy =      -77.53293022  energy(sigma->0) =      -77.54285256


--------------------------------------------------------------------------------------------------------




--------------------------------------- Iteration      1(  23)  ---------------------------------------


    POTLOK:  cpu time      0.0217: real time      0.0219
    SETDIJ:  cpu time      0.3661: real time      0.3672
    TRIAL :  cpu time      0.3013: real time      0.3035
    CORREC:  cpu time      0.5068: real time      0.5089
    CHARGE:  cpu time      0.0390: real time      0.0392
    --------------------------------------------
      LOOP:  cpu time      1.2360: real time      1.2450

 eigenvalue-minimisations  :     0
 total energy-change (2. order) :-0.1030651E-03  (-0.1445093E-03)
 number of electron      87.9999892 magnetization 
 augmentation part       40.6245709 magnetization 

 Free energy of the ion-electron system (eV)
  ---------------------------------------------------
  alpha Z        PSCENC =       610.37134478
  Ewald energy   TEWEN  =    -10614.75848350
  -Hartree energ DENC   =     -4434.16043232
  -exchange      EXHF   =         0.00000000
  -V(xc)+E(xc)   XCENC  =       559.77319339
  PAW double counting   =     14219.71155265   -14815.75937304
  entropy T*S    EENTRO =        -0.01984495
  eigenvalues    EBANDS =     -1336.63494562
  atomic energy  EATOM  =     15733.92411038
  ---------------------------------------------------
  free energy    TOTEN  =       -77.55287797 eV

  energy without entropy =      -77.53303302  energy(sigma->0) =      -77.54295549


--------------------------------------------------------------------------------------------------------




--------------------------------------- Iteration      1(  24)  ---------------------------------------


    POTLOK:  cpu time      0.0215: real time      0.0217
    SETDIJ:  cpu time      0.3639: real time      0.3650
    TRIAL :  cpu time      0.2998: real time      0.3022
    CORREC:  cpu time      0.5082: real time      0.5103
    CHARGE:  cpu time      0.0396: real time      0.0398
    --------------------------------------------
      LOOP:  cpu time      1.2337: real time      1.2447

 eigenvalue-minimisations  :     0
 total energy-change (2. order) :-0.1247873E-03  (-0.3854407E-04)
 number of electron      87.9999892 magnetization 
 augmentation part       40.6243036 magnetization 

 Free energy of the ion-electron system (eV)
  ---------------------------------------------------
  alpha Z        PSCENC =       610.37134478
  Ewald energy   TEWEN  =    -10614.75848350
  -Hartree energ DENC   =     -4433.96701184
  -exchange      EXHF   =         0.00000000
  -V(xc)+E(xc)   XCENC  =       559.76812542
  PAW double counting   =     14221.24770817   -14817.21739892
  entropy T*S    EENTRO =        -0.01984598
  eigenvalues    EBANDS =     -1336.90155229
  atomic energy  EATOM  =     15733.92411038
  ---------------------------------------------------
  free energy    TOTEN  =       -77.55300276 eV

  energy without entropy =      -77.53315678  energy(sigma->0) =      -77.54307977


--------------------------------------------------------------------------------------------------------




--------------------------------------- Iteration      1(  25)  ---------------------------------------


    POTLOK:  cpu time      0.0216: real time      0.0217
    SETDIJ:  cpu time      0.3621: real time      0.3634
    TRIAL :  cpu time      0.3000: real time      0.3022
    CORREC:  cpu time      0.4628: real time      0.5057
    CHARGE:  cpu time      0.0385: real time      0.0387
    --------------------------------------------
      LOOP:  cpu time      1.1855: real time      1.2374

 eigenvalue-minimisations  :     0
 total energy-change (2. order) :-0.3997664E-04  (-0.1079683E-04)
 number of electron      87.9999892 magnetization 
 augmentation part       40.6245176 magnetization 

 Free energy of the ion-electron system (eV)
  ---------------------------------------------------
  alpha Z        PSCENC =       610.37134478
  Ewald energy   TEWEN  =    -10614.75848350
  -Hartree energ DENC   =     -4433.90176944
  -exchange      EXHF   =         0.00000000
  -V(xc)+E(xc)   XCENC  =       559.76667270
  PAW double counting   =     14221.84827181   -14817.79150339
  entropy T*S    EENTRO =        -0.01984498
  eigenvalues    EBANDS =     -1336.99184010
  atomic energy  EATOM  =     15733.92411038
  ---------------------------------------------------
  free energy    TOTEN  =       -77.55304273 eV

  energy without entropy =      -77.53319775  energy(sigma->0) =      -77.54312024


--------------------------------------------------------------------------------------------------------




--------------------------------------- Iteration      1(  26)  ---------------------------------------


    POTLOK:  cpu time      0.0217: real time      0.0218
    SETDIJ:  cpu time      0.3641: real time      0.3655
    TRIAL :  cpu time      0.3006: real time      0.3029
    CORREC:  cpu time      0.5105: real time      0.5128
    CHARGE:  cpu time      0.0386: real time      0.0388
    --------------------------------------------
      LOOP:  cpu time      1.2368: real time      1.2458

 eigenvalue-minimisations  :     0
 total energy-change (2. order) :-0.1069952E-04  (-0.3160966E-04)
 number of electron      87.9999892 magnetization 
 augmentation part       40.6255796 magnetization 

 Free energy of the ion-electron system (eV)
  ---------------------------------------------------
  alpha Z        PSCENC =       610.37134478
  Ewald energy   TEWEN  =    -10614.75848350
  -Hartree energ DENC   =     -4433.92956827
  -exchange      EXHF   =         0.00000000
  -V(xc)+E(xc)   XCENC  =       559.76829724
  PAW double counting   =     14222.13052728   -14818.07897617
  entropy T*S    EENTRO =        -0.01984218
  eigenvalues    EBANDS =     -1336.96046018
  atomic energy  EATOM  =     15733.92411038
  ---------------------------------------------------
  free energy    TOTEN  =       -77.55305343 eV

  energy without entropy =      -77.53321126  energy(sigma->0) =      -77.54313234


--------------------------------------------------------------------------------------------------------




--------------------------------------- Iteration      1(  27)  ---------------------------------------


    POTLOK:  cpu time      0.0215: real time      0.0217
    SETDIJ:  cpu time      0.3634: real time      0.3648
    TRIAL :  cpu time      0.3009: real time      0.3032
    CORREC:  cpu time      0.5062: real time      0.5086
    CHARGE:  cpu time      0.0390: real time      0.0392
    --------------------------------------------
      LOOP:  cpu time      1.2317: real time      1.2430

 eigenvalue-minimisations  :     0
 total energy-change (2. order) :-0.3375838E-04  (-0.7680254E-05)
 number of electron      87.9999892 magnetization 
 augmentation part       40.6257023 magnetization 

 Free energy of the ion-electron system (eV)
  ---------------------------------------------------
  alpha Z        PSCENC =       610.37134478
  Ewald energy   TEWEN  =    -10614.75848350
  -Hartree energ DENC   =     -4434.07829852
  -exchange      EXHF   =         0.00000000
  -V(xc)+E(xc)   XCENC  =       559.77605875
  PAW double counting   =     14223.11573997   -14819.09875320
  entropy T*S    EENTRO =        -0.01984210
  eigenvalues    EBANDS =     -1336.78496366
  atomic energy  EATOM  =     15733.92411038
  ---------------------------------------------------
  free energy    TOTEN  =       -77.55308719 eV

  energy without entropy =      -77.53324509  energy(sigma->0) =      -77.54316614


--------------------------------------------------------------------------------------------------------




--------------------------------------- Iteration      1(  28)  ---------------------------------------


    POTLOK:  cpu time      0.0216: real time      0.0218
    SETDIJ:  cpu time      0.3631: real time      0.3645
    TRIAL :  cpu time      0.3010: real time      0.3034
    CORREC:  cpu time      0.5009: real time      0.5032
    CHARGE:  cpu time      0.0396: real time      0.0398
    --------------------------------------------
      LOOP:  cpu time      1.2269: real time      1.2381

 eigenvalue-minimisations  :     0
 total energy-change (2. order) :-0.7717956E-05  ( 0.2973887E-04)
 number of electron      87.9999892 magnetization 
 augmentation part       40.6255129 magnetization 

 Free energy of the ion-electron system (eV)
  ---------------------------------------------------
  alpha Z        PSCENC =       610.37134478
  Ewald energy   TEWEN  =    -10614.75848350
  -Hartree energ DENC   =     -4434.08841342
  -exchange      EXHF   =         0.00000000
  -V(xc)+E(xc)   XCENC  =       559.77679559
  PAW double counting   =     14223.23402059   -14819.22062753
  entropy T*S    EENTRO =        -0.01984138
  eigenvalues    EBANDS =     -1336.77199971
  atomic energy  EATOM  =     15733.92411038
  ---------------------------------------------------
  free energy    TOTEN  =       -77.55309491 eV

  energy without entropy =      -77.53325353  energy(sigma->0) =      -77.54317422


--------------------------------------------------------------------------------------------------------




--------------------------------------- Iteration      1(  29)  ---------------------------------------


    POTLOK:  cpu time      0.0217: real time      0.0218
    SETDIJ:  cpu time      0.3631: real time      0.3646
    TRIAL :  cpu time      0.3009: real time      0.3033
    CORREC:  cpu time      0.5040: real time      0.5062
    CHARGE:  cpu time      0.0386: real time      0.0389
    --------------------------------------------
      LOOP:  cpu time      1.2288: real time      1.2406

 eigenvalue-minimisations  :     0
 total energy-change (2. order) :-0.7006091E-05  (-0.6037126E-05)
 number of electron      87.9999892 magnetization 
 augmentation part       40.6251262 magnetization 

 Free energy of the ion-electron system (eV)
  ---------------------------------------------------
  alpha Z        PSCENC =       610.37134478
  Ewald energy   TEWEN  =    -10614.75848350
  -Hartree energ DENC   =     -4434.04538548
  -exchange      EXHF   =         0.00000000
  -V(xc)+E(xc)   XCENC  =       559.77502357
  PAW double counting   =     14223.08411151   -14819.06342429
  entropy T*S    EENTRO =        -0.01983916
  eigenvalues    EBANDS =     -1336.82055750
  atomic energy  EATOM  =     15733.92411038
  ---------------------------------------------------
  free energy    TOTEN  =       -77.55310191 eV

  energy without entropy =      -77.53326275  energy(sigma->0) =      -77.54318233


--------------------------------------------------------------------------------------------------------




--------------------------------------- Iteration      1(  30)  ---------------------------------------


    POTLOK:  cpu time      0.0217: real time      0.0219
    SETDIJ:  cpu time      0.3625: real time      0.3638
    TRIAL :  cpu time      0.3000: real time      0.3023
    CORREC:  cpu time      0.5100: real time      0.5125
    CHARGE:  cpu time      0.0393: real time      0.0395
    --------------------------------------------
      LOOP:  cpu time      1.2342: real time      1.2454

 eigenvalue-minimisations  :     0
 total energy-change (2. order) :-0.1659799E-05  (-0.7701308E-05)
 number of electron      87.9999892 magnetization 
 augmentation part       40.6251703 magnetization 

 Free energy of the ion-electron system (eV)
  ---------------------------------------------------
  alpha Z        PSCENC =       610.37134478
  Ewald energy   TEWEN  =    -10614.75848350
  -Hartree energ DENC   =     -4433.97597966
  -exchange      EXHF   =         0.00000000
  -V(xc)+E(xc)   XCENC  =       559.77146448
  PAW double counting   =     14222.74562116   -14818.71329365
  entropy T*S    EENTRO =        -0.01983907
  eigenvalues    EBANDS =     -1336.89804840
  atomic energy  EATOM  =     15733.92411038
  ---------------------------------------------------
  free energy    TOTEN  =       -77.55310357 eV

  energy without entropy =      -77.53326450  energy(sigma->0) =      -77.54318404


--------------------------------------------------------------------------------------------------------




--------------------------------------- Iteration      1(  31)  ---------------------------------------


[...]
     24       1.7172      2.00000
     25       1.7376      2.00000
     26       1.7383      2.00000
     27       2.1315      2.00000
     28       2.3932      2.00000
     29       5.5601      2.00000
     30       5.5611      2.00000
     31       5.6357      2.00000
     32       5.8611      2.00000
     33       6.1282      2.00000
     34       6.1625      2.00000
     35       6.2208      2.00000
     36       6.3534      2.00000
     37       6.3555      2.00000
     38       6.5189      2.00000
     39       6.5196      2.00000
     40       6.5492      2.00000
     41       6.8010      2.00000
     42       7.0474      2.00000
     43       7.0492      2.00000
     44       7.2780      2.00000
     45       8.3686      0.18886
     46       8.3703      0.18792
     47       8.3792      0.11124
     48       8.4724      0.00000
     49      13.2994      0.00000
     50      15.9063      0.00000
     51      15.9070      0.00000
     52      17.5231      0.00000

 k-point    11 :       0.3333    0.3333    0.3333
  band No.  band energies     occupation 
      1     -58.2295      2.00000
      2     -58.2289      2.00000
      3     -58.2284      2.00000
      4     -58.2231      2.00000
      5     -58.2049      2.00000
      6     -58.2039      2.00000
      7     -58.2025      2.00000
      8     -58.2011      2.00000
      9     -58.2007      2.00000
     10     -58.1999      2.00000
     11     -58.1965      2.00000
     12     -58.1963      2.00000
     13     -13.5843      2.00000
     14     -13.1650      2.00000
     15     -13.1647      2.00000
     16     -13.1645      2.00000
     17      -0.8512      2.00000
     18      -0.8511      2.00000
     19      -0.8509      2.00000
     20      -0.3629      2.00000
     21       1.2660      2.00000
     22       1.2663      2.00000
     23       1.2665      2.00000
     24       1.6988      2.00000
     25       1.6989      2.00000
     26       1.6990      2.00000
     27       1.8897      2.00000
     28       1.8897      2.00000
     29       5.8872      2.00000
     30       5.8874      2.00000
     31       5.8879      2.00000
     32       5.9957      2.00000
     33       5.9957      2.00000
     34       6.2728      2.00000
     35       6.2796      2.00000
     36       6.2803      2.00000
     37       6.2807      2.00000
     38       6.5507      2.00000
     39       6.5508      2.00000
     40       6.5510      2.00000
     41       8.3829      0.09017
     42       8.3832      0.08883
     43       8.3832      0.08774
     44       8.4484      0.00039
     45       8.4488      0.00038
     46       8.4490      0.00035
     47       8.5058      0.00000
     48       8.5058      0.00000
     49      13.5167      0.00000
     50      15.3663      0.00000
     51      15.3663      0.00000
     52      15.3663      0.00000

 k-point    12 :      -0.3333    0.3333    0.3333
  band No.  band energies     occupation 
      1     -58.2295      2.00000
      2     -58.2289      2.00000
      3     -58.2284      2.00000
      4     -58.2231      2.00000
      5     -58.2049      2.00000
      6     -58.2039      2.00000
      7     -58.2025      2.00000
      8     -58.2011      2.00000
      9     -58.2007      2.00000
     10     -58.1999      2.00000
     11     -58.1965      2.00000
     12     -58.1963      2.00000
     13     -13.5843      2.00000
     14     -13.1650      2.00000
     15     -13.1647      2.00000
     16     -13.1645      2.00000
     17      -0.8512      2.00000
     18      -0.8511      2.00000
     19      -0.8509      2.00000
     20      -0.3629      2.00000
     21       1.2661      2.00000
     22       1.2664      2.00000
     23       1.2665      2.00000
     24       1.6988      2.00000
     25       1.6989      2.00000
     26       1.6990      2.00000
     27       1.8897      2.00000
     28       1.8897      2.00000
     29       5.8872      2.00000
     30       5.8874      2.00000
     31       5.8879      2.00000
     32       5.9957      2.00000
     33       5.9957      2.00000
     34       6.2728      2.00000
     35       6.2796      2.00000
     36       6.2803      2.00000
     37       6.2807      2.00000
     38       6.5507      2.00000
     39       6.5508      2.00000
     40       6.5510      2.00000
     41       8.3829      0.09017
     42       8.3832      0.08879
     43       8.3832      0.08781
     44       8.4484      0.00039
     45       8.4488      0.00038
     46       8.4490      0.00035
     47       8.5058      0.00000
     48       8.5058      0.00000
     49      13.5167      0.00000
     50      15.3662      0.00000
     51      15.3663      0.00000
     52      15.3664      0.00000

 k-point    13 :      -0.3333   -0.3333    0.3333
  band No.  band energies     occupation 
      1     -58.2295      2.00000
      2     -58.2289      2.00000
      3     -58.2284      2.00000
      4     -58.2231      2.00000
      5     -58.2049      2.00000
      6     -58.2039      2.00000
      7     -58.2025      2.00000
      8     -58.2011      2.00000
      9     -58.2007      2.00000
     10     -58.1999      2.00000
     11     -58.1965      2.00000
     12     -58.1963      2.00000
     13     -13.5842      2.00000
     14     -13.1650      2.00000
     15     -13.1647      2.00000
     16     -13.1645      2.00000
     17      -0.8512      2.00000
     18      -0.8511      2.00000
     19      -0.8509      2.00000
     20      -0.3629      2.00000
     21       1.2661      2.00000
     22       1.2664      2.00000
     23       1.2665      2.00000
     24       1.6988      2.00000
     25       1.6989      2.00000
     26       1.6990      2.00000
     27       1.8897      2.00000
     28       1.8897      2.00000
     29       5.8872      2.00000
     30       5.8875      2.00000
     31       5.8880      2.00000
     32       5.9957      2.00000
     33       5.9957      2.00000
     34       6.2728      2.00000
     35       6.2796      2.00000
     36       6.2803      2.00000
     37       6.2807      2.00000
     38       6.5507      2.00000
     39       6.5508      2.00000
     40       6.5510      2.00000
     41       8.3829      0.09018
     42       8.3832      0.08882
     43       8.3832      0.08780
     44       8.4484      0.00039
     45       8.4488      0.00038
     46       8.4490      0.00035
     47       8.5058      0.00000
     48       8.5058      0.00000
     49      13.5167      0.00000
     50      15.3663      0.00000
     51      15.3663      0.00000
     52      15.3664      0.00000

 k-point    14 :       0.3333   -0.3333    0.3333
  band No.  band energies     occupation 
      1     -58.2295      2.00000
      2     -58.2289      2.00000
      3     -58.2284      2.00000
      4     -58.2231      2.00000
      5     -58.2049      2.00000
      6     -58.2039      2.00000
      7     -58.2025      2.00000
      8     -58.2011      2.00000
      9     -58.2007      2.00000
     10     -58.1999      2.00000
     11     -58.1965      2.00000
     12     -58.1963      2.00000
     13     -13.5843      2.00000
     14     -13.1650      2.00000
     15     -13.1647      2.00000
     16     -13.1645      2.00000
     17      -0.8512      2.00000
     18      -0.8511      2.00000
     19      -0.8509      2.00000
     20      -0.3629      2.00000
     21       1.2661      2.00000
     22       1.2663      2.00000
     23       1.2665      2.00000
     24       1.6988      2.00000
     25       1.6989      2.00000
     26       1.6990      2.00000
     27       1.8897      2.00000
     28       1.8897      2.00000
     29       5.8872      2.00000
     30       5.8874      2.00000
     31       5.8879      2.00000
     32       5.9957      2.00000
     33       5.9957      2.00000
     34       6.2728      2.00000
     35       6.2796      2.00000
     36       6.2803      2.00000
     37       6.2807      2.00000
     38       6.5507      2.00000
     39       6.5508      2.00000
     40       6.5510      2.00000
     41       8.3829      0.09017
     42       8.3832      0.08884
     43       8.3832      0.08774
     44       8.4484      0.00039
     45       8.4488      0.00038
     46       8.4491      0.00035
     47       8.5058      0.00000
     48       8.5058      0.00000
     49      13.5167      0.00000
     50      15.3662      0.00000
     51      15.3664      0.00000
     52      15.3669      0.00000


--------------------------------------------------------------------------------------------------------


 soft charge-density along one line, spin component           1
         0         1         2         3         4         5         6         7         8         9
 total charge-density along one line
 
 pseudopotential strength for first ion, spin component:           1
-62.027   0.000   0.000  10.404  -0.000  -0.000  -0.000   0.000
  0.000 -62.027  -0.000  -0.000  10.404   0.000   0.000  -0.000
  0.000  -0.000 -62.027  -0.000   0.000  10.404   0.000   0.000
 10.404  -0.000  -0.000   5.945   0.000   0.000   0.000   0.000
 -0.000  10.404   0.000   0.000   5.945  -0.000   0.000   0.000
 -0.000   0.000  10.404   0.000  -0.000   5.945   0.000   0.000
 -0.000   0.000   0.000   0.000   0.000   0.000  -5.991  -0.000
  0.000  -0.000   0.000   0.000   0.000   0.000  -0.000  -5.991
 -0.000   0.000   0.000  -0.000   0.000  -0.000  -0.000   0.000
  0.000   0.000   0.000   0.000  -0.000  -0.000  -0.000   0.000
  0.000   0.000  -0.000  -0.000  -0.000   0.000  -0.000  -0.000
 -0.000   0.000   0.000   0.000   0.000   0.000  -6.586  -0.000
  0.000  -0.000   0.000   0.000  -0.000   0.000  -0.000  -6.586
 -0.000   0.000   0.000  -0.000   0.000  -0.000  -0.000   0.000
  0.000   0.000   0.000   0.000  -0.000  -0.000  -0.000   0.000
  0.000   0.000  -0.000  -0.000  -0.000   0.000  -0.000  -0.000
  0.000   0.000   0.000  -0.000  -0.000   0.000  -0.000  -0.000
  0.000   0.000  -0.000  -0.000  -0.000   0.000  -0.000  -0.000
 total augmentation occupancy for first ion, spin component:           1
  1.997   0.000   0.000  -0.015  -0.000   0.000   0.000   0.000   0.000  -0.000  -0.000  -0.000  -0.000   0.000   0.000   0.000
  0.000   1.997  -0.000  -0.000  -0.015  -0.000   0.000   0.000   0.000  -0.000  -0.000  -0.000  -0.000  -0.000   0.000   0.000
  0.000  -0.000   1.997   0.000  -0.000  -0.015   0.000   0.000  -0.000   0.000   0.000  -0.000  -0.000   0.000  -0.000  -0.000
 -0.015  -0.000   0.000   0.087   0.000   0.000  -0.000  -0.000   0.000  -0.000   0.000  -0.000   0.000  -0.000  -0.000  -0.000
 -0.000  -0.015  -0.000   0.000   0.087  -0.000  -0.000   0.000   0.000   0.000  -0.000   0.000  -0.000  -0.000  -0.000   0.000
  0.000  -0.000  -0.015   0.000  -0.000   0.087   0.000  -0.000  -0.000   0.000   0.000   0.000   0.000   0.000  -0.000  -0.000
  0.000   0.000   0.000  -0.000  -0.000   0.000   4.869   0.000   0.000   0.000  -0.000  -2.210  -0.000  -0.000  -0.000   0.000
  0.000   0.000   0.000  -0.000   0.000  -0.000   0.000   4.869  -0.000  -0.000   0.000  -0.000  -2.210   0.000   0.000   0.000
  0.000   0.000  -0.000   0.000   0.000  -0.000   0.000  -0.000   5.646  -0.000  -0.001  -0.000   0.000  -4.387   0.000   0.000
 -0.000  -0.000   0.000  -0.000   0.000   0.000   0.000  -0.000  -0.000   4.869  -0.000  -0.000   0.000   0.000  -2.210   0.000
 -0.000  -0.000   0.000   0.000  -0.000   0.000  -0.000   0.000  -0.001  -0.000   5.646   0.000  -0.000   0.000   0.000  -4.387
 -0.000  -0.000  -0.000  -0.000   0.000   0.000  -2.210  -0.000  -0.000  -0.000   0.000   1.615   0.000  -0.000   0.000  -0.000
 -0.000  -0.000  -0.000   0.000  -0.000   0.000  -0.000  -2.210   0.000   0.000  -0.000   0.000   1.615  -0.000  -0.000   0.000
  0.000  -0.000   0.000  -0.000  -0.000   0.000  -0.000   0.000  -4.387   0.000   0.000  -0.000  -0.000   4.459  -0.000  -0.000
  0.000   0.000  -0.000  -0.000  -0.000  -0.000  -0.000   0.000   0.000  -2.210   0.000   0.000  -0.000  -0.000   1.615  -0.000
  0.000   0.000  -0.000  -0.000   0.000  -0.000   0.000   0.000   0.000   0.000  -4.387  -0.000   0.000  -0.000  -0.000   4.459
  0.000   0.000  -0.000   0.000   0.000  -0.000   0.000  -0.000   0.000  -0.000  -0.000  -0.000   0.000   0.000   0.000  -0.000
 -0.000  -0.000   0.000  -0.000  -0.000   0.000  -0.000   0.000  -0.000   0.000   0.000   0.000  -0.000  -0.000  -0.000   0.000


------------------------ aborting loop because EDIFF is reached ----------------------------------------





 total charge

# of ion       s       p       d       tot
------------------------------------------
    1        0.228   6.171   8.046  14.446
    2        0.228   6.171   8.046  14.446
    3        0.228   6.171   8.047  14.446
    4        0.228   6.171   8.047  14.446
    5        1.578   3.418   0.000   4.996
    6        1.578   3.418   0.000   4.996
    7        1.578   3.418   0.000   4.996
    8        1.578   3.418   0.000   4.996
--------------------------------------------------
tot          7.223  38.357  32.186  77.766
 
    FORLOC:  cpu time      0.0009: real time      0.0009
    FORNL :  cpu time      0.0435: real time      0.0437
    STRESS:  cpu time      0.6885: real time      0.6920
    FORCOR:  cpu time      0.0226: real time      0.0227
    OFIELD:  cpu time      0.0002: real time      0.0002

  FORCE on cell =-STRESS in cart. coord.  units (eV):
  Direction    XX          YY          ZZ          XY          YZ          ZX
  --------------------------------------------------------------------------------------
  Alpha Z   654.36310   654.36310   654.36310
  Ewald   -3621.31552 -3621.29462 -3621.28435    -0.00012     0.00022     0.00060
  Hartree  1431.39942  1431.41337  1431.42562    -0.00003     0.00006    -0.00009
  E(xc)    -654.79825  -654.79831  -654.79840     0.00000    -0.00001    -0.00000
  Local     437.82443   437.78739   437.75750     0.00012    -0.00021     0.00007
  n-local  -448.40355  -448.40281  -448.40325    -0.00004     0.00010     0.00011
  augment   772.91510   772.91463   772.91377     0.00000    -0.00001    -0.00022
  Kinetic  1427.98460  1427.98443  1427.98814     0.00012    -0.00022    -0.00041
  Fock        0.00000     0.00000     0.00000     0.00000     0.00000     0.00000
  -------------------------------------------------------------------------------------
  Total      -0.03066    -0.03283    -0.03786     0.00005    -0.00006     0.00005
  in kB      -0.71080    -0.76103    -0.87785     0.00117    -0.00145     0.00121
  external pressure =       -0.78 kB  Pullay stress =        0.00 kB


 VOLUME and BASIS-vectors are now :
 -----------------------------------------------------------------------------
  energy-cutoff  :      680.00
  volume of cell :       69.11
      direct lattice vectors                 reciprocal lattice vectors
     4.103697637 -0.000001098  0.000005495     0.243682671  0.000000065 -0.000000326
    -0.000001098  4.103686797  0.000002017     0.000000065  0.243683314 -0.000000120
     0.000005495  0.000002017  4.103681471    -0.000000326 -0.000000120  0.243683631

  length of vectors
     4.103697637  4.103686797  4.103681471     0.243682671  0.243683314  0.243683631


 FORCES acting on ions:
    Electron-Ion                     Ewald-Force                    Non-Local-Force
 -----------------------------------------------------------------------------------------------
   -.432E-03 0.199E-03 -.101E-02   0.831E-03 -.140E-03 0.102E-02   -.406E-03 -.850E-04 -.346E-04
   0.148E-02 0.327E-02 -.246E-02   -.107E-02 -.320E-02 0.246E-02   -.495E-03 -.208E-03 0.148E-04
   -.695E-03 0.509E-03 0.269E-02   0.116E-02 -.525E-03 -.268E-02   -.545E-03 -.750E-04 -.928E-04
   -.366E-02 -.261E-02 0.257E-03   0.406E-02 0.257E-02 -.297E-03   -.379E-03 0.399E-04 -.968E-05
   0.104E-02 0.163E-02 -.186E-02   -.116E-02 -.170E-02 0.201E-02   0.156E-03 -.189E-04 -.147E-03
   -.305E-03 -.519E-03 -.317E-03   0.228E-03 0.597E-03 0.403E-03   0.143E-03 -.117E-03 -.110E-03
   0.895E-03 -.212E-02 0.820E-03   -.106E-02 0.231E-02 -.879E-03   0.240E-03 -.150E-03 0.292E-04
   0.278E-02 -.193E-04 0.192E-02   -.299E-02 0.756E-04 -.204E-02   0.227E-03 -.612E-04 0.787E-04
 -----------------------------------------------------------------------------------------------
   0.115E-02 0.339E-03 0.393E-04   0.485E-14 0.179E-14 -.274E-14   -.106E-02 -.675E-03 -.271E-03
 
 
 POSITION                                       TOTAL-FORCE (eV/Angst)
 -----------------------------------------------------------------------------------
     -0.00000     -0.00000     -0.00000        -0.000006      0.000015      0.000012
      0.00000      2.05185      2.05184        -0.000090     -0.000093      0.000041
      2.05185      0.00000      2.05185        -0.000081     -0.000051     -0.000053
      2.05185      2.05184      0.00001         0.000026      0.000047     -0.000022
      2.05185      0.00000      0.00000         0.000025     -0.000046      0.000030
      2.05185      2.05184      2.05185         0.000054      0.000002      0.000005
      0.00000     -0.00000      2.05184         0.000066      0.000088     -0.000000
      0.00000      2.05184      0.00000         0.000007      0.000037     -0.000012
 -----------------------------------------------------------------------------------
    total drift:                                0.000095     -0.000336     -0.000232


--------------------------------------------------------------------------------------------------------



  FREE ENERGIE OF THE ION-ELECTRON SYSTEM (eV)
  ---------------------------------------------------
  free  energy   TOTEN  =       -77.79993925 eV

  energy  without entropy=      -77.77990904  energy(sigma->0) =      -77.78992414
 
 d Force =-0.6159940E-10[-0.107E-09,-0.165E-10]  d Energy = 0.4342158E-02-0.434E-02
 d Force =-0.7634969E-08[-0.814E-08,-0.713E-08]  d Ewald  = 0.2983448E+02-0.298E+02


--------------------------------------------------------------------------------------------------------


    POTLOK:  cpu time      0.3857: real time      0.3876


--------------------------------------------------------------------------------------------------------




--------------------------------------------------------------------------------------------------------


  
 reached required accuracy - stopping structural energy minimisation
 writing wavefunctions
     LOOP+:  cpu time     25.1015: real time     25.3183
    4ORBIT:  cpu time      0.0000: real time      0.0000



 total charge

# of ion       s       p       d       tot
------------------------------------------
    1        0.228   6.171   8.046  14.446
    2        0.228   6.171   8.046  14.446
    3        0.228   6.171   8.047  14.446
    4        0.228   6.171   8.047  14.446
    5        1.578   3.418   0.000   4.996
    6        1.578   3.418   0.000   4.996
    7        1.578   3.418   0.000   4.996
    8        1.578   3.418   0.000   4.996
--------------------------------------------------
tot          7.223  38.357  32.186  77.766
 

 total amount of memory used by VASP MPI-rank0    41443. kBytes
=======================================================================

   base      :      30000. kBytes
   nonlr-proj:       1305. kBytes
   fftplans  :        988. kBytes
   grid      :       1974. kBytes
   one-center:         15. kBytes
   wavefun   :       7161. kBytes
 
  
  
 General timing and accounting informations for this job:
 ========================================================
  
                  Total CPU time used (sec):      114.069
                            User time (sec):      113.423
                          System time (sec):        0.646
                         Elapsed time (sec):      115.768
  
                   Maximum memory used (kb):      215568.
                   Average memory used (kb):          N/A
  
                          Minor page faults:        19090
                          Major page faults:           72
                 Voluntary context switches:         1749
