<?xml version="1.0" encoding="ISO-8859-1"?>
<modeling>
 <generator>
  <i name="program" type="string">vasp </i>
  <i name="version" type="string">6.4.1  </i>
  <i name="subversion" type="string">05Apr23 (build Jan 13 2025 16:05:33) complex                          parallel </i>
  <i name="platform" type="string">LinuxIFC </i>
  <i name="date" type="string">2025 09 11 </i>
  <i name="time" type="string">11:12:19 </i>
 </generator>
 <incar>
  <i type="string" name="PREC">Accurate</i>
  <i type="string" name="ALGO">Fast</i>
  <i type="int" name="ISPIN">     1</i>
  <i type="int" name="NELM">   500</i>
  <i type="int" name="IBRION">     2</i>
  <i name="EDIFF">      0.00000100</i>
  <i name="EDIFFG">     -0.00500000</i>
  <i type="int" name="NSW">     0</i>
  <i type="int" name="ISIF">     3</i>
  <i type="int" name="ISYM">     0</i>
  <i name="ENCUT">    680.00000000</i>
  <i name="ENAUG">   1360.00000000</i>
  <i name="POTIM">      0.25000000</i>
  <v name="MAGMOM">      0.00000000      0.00000000      0.00000000      0.00000000      0.00000000      0.00000000      0.00000000      0.00000000</v>
  <i type="string" name="LREAL">Auto</i>
  <i name="TIME">      0.10000000</i>
  <i type="int" name="ISMEAR">    -5</i>
  <i name="SIGMA">      0.05000000</i>
  <i name="KSPACING">      0.50000000</i>
  <i type="logical" name="LWAVE"> T  </i>
  <i type="logical" name="LCHARG"> T  </i>
  <i type="logical" name="LVTOT"> F  </i>
  <i type="int" name="LORBIT">    11</i>
  <i type="logical" name="LELF"> F  </i>
  <i type="logical" name="LASPH"> T  </i>
  <i type="logical" name="LAECHG"> F  </i>
  <i type="string" name="METAGGA">R2scan</i>
  <i type="logical" name="LMIXTAU"> T  </i>
 </incar>
 <primitive_cell>
  <structure name="primitive_cell" >
   <crystal>
    <varray name="basis" >
     <v>       4.20358651       0.00000002       0.00000028 </v>
     <v>       0.00000002       4.20358531      -0.00000102 </v>
     <v>       0.00000028      -0.00000102       4.20358113 </v>
    </varray>
    <i name="volume">     74.27784381 </i>
    <varray name="rec_basis" >
     <v>       0.23789209      -0.00000000      -0.00000002 </v>
     <v>      -0.00000000       0.23789216       0.00000006 </v>
     <v>      -0.00000002       0.00000006       0.23789240 </v>
    </varray>
   </crystal>
   <varray name="positions" >
    <v>       0.99999911       0.00000007       0.00000182 </v>
    <v>       0.00000154       0.49999921       0.50000016 </v>
    <v>       0.50000014       0.00000146       0.49999981 </v>
    <v>       0.49999748       0.49999782       0.99999846 </v>
    <v>       0.49999927       0.00000107       0.99999993 </v>
    <v>       0.50000031       0.49999930       0.50000010 </v>
    <v>       0.00000180       0.00000164       0.49999999 </v>
    <v>       0.00000034       0.49999943       0.99999972 </v>
   </varray>
  </structure>
  <varray name="primitive_index" >
   <v type="int" >        1 </v>
   <v type="int" >        2 </v>
   <v type="int" >        3 </v>
   <v type="int" >        4 </v>
   <v type="int" >        5 </v>
   <v type="int" >        6 </v>
   <v type="int" >        7 </v>
   <v type="int" >        8 </v>
  </varray>
 </primitive_cell>
 <kpoints>
  <generation param="Gamma">
   <v type="int" name="divisions">       3        3        3 </v>
   <v name="usershift">      0.00000000       0.00000000       0.00000000 </v>
   <v name="genvec1">      0.33333333      -0.00000000      -0.00000000 </v>
   <v name="genvec2">     -0.00000000       0.33333333       0.00000000 </v>
   <v name="genvec3">     -0.00000000       0.00000000       0.33333333 </v>
   <v name="shift">      0.00000000       0.00000000       0.00000000 </v>
  </generation>
  <varray name="kpointlist" >
   <v>       0.00000000       0.00000000       0.00000000 </v>
   <v>       0.33333333       0.00000000       0.00000000 </v>
   <v>       0.00000000       0.33333333       0.00000000 </v>
   <v>       0.00000000       0.00000000       0.33333333 </v>
   <v>       0.33333333       0.33333333       0.00000000 </v>
   <v>      -0.00000000       0.33333333       0.33333333 </v>
   <v>       0.33333333      -0.00000000       0.33333333 </v>
   <v>      -0.33333333       0.33333333       0.00000000 </v>
   <v>      -0.33333333      -0.00000000       0.33333333 </v>
   <v>       0.00000000      -0.33333333       0.33333333 </v>
   <v>       0.33333333       0.33333333       0.33333333 </v>
   <v>      -0.33333333       0.33333333       0.33333333 </v>
   <v>      -0.33333333      -0.33333333       0.33333333 </v>
   <v>       0.33333333      -0.33333333       0.33333333 </v>
  </varray>
  <varray name="weights" >
   <v>       0.03703704 </v>
   <v>       0.07407407 </v>
   <v>       0.07407407 </v>
   <v>       0.07407407 </v>
   <v>       0.07407407 </v>
   <v>       0.07407407 </v>
   <v>       0.07407407 </v>
   <v>       0.07407407 </v>
   <v>       0.07407407 </v>
   <v>       0.07407407 </v>
   <v>       0.07407407 </v>
   <v>       0.07407407 </v>
   <v>       0.07407407 </v>
   <v>       0.07407407 </v>
  </varray>
  <varray name="tetrahedronlist"  type="int" >
   <v type="int" >        2       11       12       13       13 </v>
   <v type="int" >        2       11       13       13       14 </v>
   <v type="int" >        2       12       13       13       14 </v>
   <v type="int" >        2        6       10       12       14 </v>
   <v type="int" >        2       10       12       13       14 </v>
   <v type="int" >        2       10       11       13       14 </v>
   <v type="int" >        4        6       10       10       14 </v>
   <v type="int" >        2        6       10       11       14 </v>
   <v type="int" >        2        9       12       13       14 </v>
   <v type="int" >        2        7        9       12       14 </v>
   <v type="int" >        4        7        9        9       12 </v>
   <v type="int" >        2        9       11       12       13 </v>
   <v type="int" >        2        7        9       11       12 </v>
   <v type="int" >        2        4       10       11       13 </v>
   <v type="int" >        2        4        9       11       13 </v>
   <v type="int" >        2        4        7        9       11 </v>
   <v type="int" >        2        4        6       10       11 </v>
   <v type="int" >        2        4        4        6       11 </v>
   <v type="int" >        2        4        4        7       11 </v>
   <v type="int" >        2        6        7       10       14 </v>
   <v type="int" >        2        4        6        7       10 </v>
   <v type="int" >        2        4        4        6        7 </v>
   <v type="int" >        2        6        7       12       14 </v>
   <v type="int" >        2        6        7        9       12 </v>
   <v type="int" >        2        4        6        7        9 </v>
   <v type="int" >        2        5       11       13       14 </v>
   <v type="int" >        2        5       11       12       13 </v>
   <v type="int" >        2        5        8       11       12 </v>
   <v type="int" >        2        5        8       11       14 </v>
   <v type="int" >        4        5        5        8       11 </v>
   <v type="int" >        2        6        8       10       14 </v>
   <v type="int" >        2        6        8       11       14 </v>
   <v type="int" >        2        5        6        8       11 </v>
   <v type="int" >        2        3        6        8       10 </v>
   <v type="int" >        2        3        3        6        8 </v>
   <v type="int" >        2        3        5        6        8 </v>
   <v type="int" >        2        3       10       12       13 </v>
   <v type="int" >        2        3        6       10       12 </v>
   <v type="int" >        2        3        3        6       12 </v>
   <v type="int" >        2        3        5       12       13 </v>
   <v type="int" >        2        3        5        8       12 </v>
   <v type="int" >        2        3        3        8       12 </v>
   <v type="int" >        2        7        8       11       12 </v>
   <v type="int" >        2        7        8        9       12 </v>
   <v type="int" >        2        2        7        8        9 </v>
   <v type="int" >        2        5        7        8       11 </v>
   <v type="int" >        2        2        5        7        8 </v>
   <v type="int" >        2        2        2        7        8 </v>
   <v type="int" >        2        4        5        6       11 </v>
   <v type="int" >        2        4        5        7       11 </v>
   <v type="int" >        2        2        4        5        7 </v>
   <v type="int" >        2        3        4        5        6 </v>
   <v type="int" >        2        1        3        4        5 </v>
   <v type="int" >        2        1        2        4        5 </v>
   <v type="int" >        2        3        6        9       12 </v>
   <v type="int" >        2        3        4        6        9 </v>
   <v type="int" >        2        1        3        4        9 </v>
   <v type="int" >        2        3        8        9       12 </v>
   <v type="int" >        2        2        3        8        9 </v>
   <v type="int" >        2        1        2        3        9 </v>
   <v type="int" >        2        2        7        9       14 </v>
   <v type="int" >        2        2        9       13       14 </v>
   <v type="int" >        2        2        5       13       14 </v>
   <v type="int" >        2        2        2        7       14 </v>
   <v type="int" >        2        2        2        8       14 </v>
   <v type="int" >        2        2        5        8       14 </v>
   <v type="int" >        2        2        4        7       10 </v>
   <v type="int" >        2        2        7       10       14 </v>
   <v type="int" >        2        2        8       10       14 </v>
   <v type="int" >        2        1        2        4       10 </v>
   <v type="int" >        2        1        2        3       10 </v>
   <v type="int" >        2        2        3        8       10 </v>
   <v type="int" >        2        1        4        9       13 </v>
   <v type="int" >        2        1        4       10       13 </v>
   <v type="int" >        2        1        3       10       13 </v>
   <v type="int" >        2        1        2        9       13 </v>
   <v type="int" >        2        1        2        5       13 </v>
   <v type="int" >        2        1        3        5       13 </v>
  </varray>
  <i name="volumeweight">      0.00617284 </i>
 </kpoints>
 <parameters>
  <separator name="general" >
   <i type="string" name="SYSTEM">unknown system</i>
   <i type="logical" name="LCOMPAT"> F  </i>
  </separator>
  <separator name="electronic" >
   <i type="string" name="PREC">accura</i>
   <i name="ENMAX">    680.00000000</i>
   <i name="ENAUG">   1360.00000000</i>
   <i name="EDIFF">      0.00000100</i>
   <i type="int" name="IALGO">    68</i>
   <i type="int" name="IWAVPR">    10</i>
   <i type="int" name="NBANDS">    33</i>
   <i type="int" name="NBANDSLOW">    -1</i>
   <i type="int" name="NBANDSHIGH">    -1</i>
   <i name="NELECT">     56.00000000</i>
   <i type="int" name="TURBO">     0</i>
   <i type="int" name="IRESTART">     0</i>
   <i type="int" name="NREBOOT">     0</i>
   <i type="int" name="NMIN">     0</i>
   <i name="EREF">      0.00000000</i>
   <separator name="electronic smearing" >
    <i type="int" name="ISMEAR">    -5</i>
    <i name="SIGMA">      0.05000000</i>
    <i name="KSPACING">      0.50000000</i>
    <i type="logical" name="KGAMMA"> T  </i>
    <i type="logical" name="KBLOWUP"> T  </i>
   </separator>
   <separator name="electronic projectors" >
    <i type="logical" name="LREAL"> T  </i>
    <v name="ROPT">     -0.00025000     -0.00025000</v>
    <i type="int" name="LMAXPAW">  -100</i>
    <i type="int" name="LMAXMIX">     2</i>
    <i type="logical" name="NLSPLINE"> F  </i>
   </separator>
   <separator name="electronic startup" >
    <i type="int" name="ISTART">     1</i>
    <i type="int" name="ICHARG">     0</i>
    <i type="int" name="INIWAV">     1</i>
   </separator>
   <separator name="electronic spin" >
    <i type="int" name="ISPIN">     1</i>
    <i type="logical" name="LNONCOLLINEAR"> F  </i>
    <v name="MAGMOM">      0.00000000      0.00000000      0.00000000      0.00000000      0.00000000      0.00000000      0.00000000      0.00000000</v>
    <i name="NUPDOWN">     -1.00000000</i>
    <i type="logical" name="LSORBIT"> F  </i>
    <v name="SAXIS">      0.00000000      0.00000000      1.00000000</v>
    <i type="logical" name="LSPIRAL"> F  </i>
    <v name="QSPIRAL">      0.00000000      0.00000000      0.00000000</v>
    <i type="logical" name="LZEROZ"> F  </i>
   </separator>
   <separator name="electronic exchange-correlation" >
    <i type="logical" name="LASPH"> T  </i>
    <i type="logical" name="LMETAGGA"> F  </i>
   </separator>
   <separator name="electronic convergence" >
    <i type="int" name="NELM">   500</i>
    <i type="int" name="NELMDL">     0</i>
    <i type="int" name="NELMIN">     2</i>
    <i name="ENINI">    680.00000000</i>
    <separator name="electronic convergence detail" >
     <i type="logical" name="LDIAG"> T  </i>
     <i type="logical" name="LSUBROT"> F  </i>
     <i name="WEIMIN">      0.00000000</i>
     <i name="EBREAK">      0.00000001</i>
     <i name="DEPER">      0.30000000</i>
     <i type="int" name="NRMM">     4</i>
     <i name="TIME">      0.10000000</i>
    </separator>
   </separator>
   <separator name="electronic mixer" >
    <i name="AMIX">      0.40000000</i>
    <i name="BMIX">      1.00000000</i>
    <i name="AMIN">      0.10000000</i>
    <i name="AMIX_MAG">      1.60000000</i>
    <i name="BMIX_MAG">      1.00000000</i>
    <separator name="electronic mixer details" >
     <i type="int" name="IMIX">     4</i>
     <i type="logical" name="MIXFIRST"> F  </i>
     <i type="int" name="MAXMIX">   -45</i>
     <i name="WC">    100.00000000</i>
     <i type="int" name="INIMIX">     1</i>
     <i type="int" name="MIXPRE">     1</i>
     <i type="int" name="MREMOVE">     5</i>
    </separator>
   </separator>
   <separator name="electronic dipolcorrection" >
    <i type="logical" name="LDIPOL"> F  </i>
    <i type="logical" name="LMONO"> F  </i>
    <i type="int" name="IDIPOL">     0</i>
    <i name="EPSILON">      1.00000000</i>
    <v name="DIPOL">   -100.00000000   -100.00000000   -100.00000000</v>
    <i name="EFIELD">      0.00000000</i>
   </separator>
  </separator>
  <separator name="grids" >
   <i type="int" name="NGX">    36</i>
   <i type="int" name="NGY">    36</i>
   <i type="int" name="NGZ">    36</i>
   <i type="int" name="NGXF">    72</i>
   <i type="int" name="NGYF">    72</i>
   <i type="int" name="NGZF">    72</i>
   <i type="logical" name="ADDGRID"> F  </i>
  </separator>
  <separator name="ionic" >
   <i type="int" name="NSW">     0</i>
   <i type="int" name="IBRION">    -1</i>
   <i type="int" name="MDALGO">     0</i>
   <i type="int" name="ISIF">     3</i>
   <i name="PSTRESS">      0.00000000</i>
   <i name="EDIFFG">     -0.00500000</i>
   <i type="int" name="NFREE">     1</i>
   <i name="POTIM">      0.25000000</i>
   <i name="SMASS">     -3.00000000</i>
   <i name="SCALEE">      1.00000000</i>
  </separator>
  <separator name="ionic md" >
   <i name="TEBEG">      0.00010000</i>
   <i name="TEEND">      0.00010000</i>
   <i type="int" name="NBLOCK">     1</i>
   <i type="int" name="KBLOCK">     1</i>
   <i type="int" name="NPACO">   256</i>
   <i name="APACO">     10.00000000</i>
  </separator>
  <separator name="symmetry" >
   <i type="int" name="ISYM">     0</i>
   <i name="SYMPREC">      0.00001000</i>
  </separator>
  <separator name="dos" >
   <i type="int" name="LORBIT">    11</i>
   <v name="RWIGS">     -1.00000000     -1.00000000</v>
   <i type="int" name="NEDOS">   301</i>
   <i name="EMIN">     10.00000000</i>
   <i name="EMAX">    -10.00000000</i>
   <i name="EFERMI">      0.00000000</i>
  </separator>
  <separator name="writing" >
   <i type="int" name="NWRITE">     2</i>
   <i type="logical" name="LWAVE"> T  </i>
   <i type="logical" name="LDOWNSAMPLE"> F  </i>
   <i type="logical" name="LCHARG"> T  </i>
   <i type="logical" name="LPARD"> F  </i>
   <i type="logical" name="LVTOT"> F  </i>
   <i type="logical" name="LVHAR"> F  </i>
   <i type="logical" name="LELF"> F  </i>
   <i type="logical" name="LOPTICS"> F  </i>
   <v name="STM">      0.00000000      0.00000000      0.00000000      0.00000000      0.00000000      0.00000000      0.00000000</v>
  </separator>
  <separator name="performance" >
   <i type="int" name="NPAR">     1</i>
   <i type="int" name="NSIM">     4</i>
   <i type="int" name="NBLK">    -1</i>
   <i type="logical" name="LPLANE"> T  </i>
   <i type="logical" name="LSCALAPACK"> T  </i>
   <i type="logical" name="LSCAAWARE"> F  </i>
   <i type="logical" name="LSCALU"> F  </i>
   <i type="logical" name="LASYNC"> F  </i>
   <i type="logical" name="LORBITALREAL"> F  </i>
  </separator>
  <separator name="miscellaneous" >
   <i type="int" name="IDIOT">     3</i>
   <i type="int" name="PHON_NSTRUCT">    -1</i>
   <i type="logical" name="LMUSIC"> F  </i>
   <v name="POMASS">     24.30500000     16.00000000</v>
   <v name="DARWINR">      0.00000000      0.00000000</v>
   <v name="DARWINV">      1.00000000      1.00000000</v>
   <i type="logical" name="LCORR"> T  </i>
  </separator>
  <i type="logical" name="GGA_COMPAT"> T  </i>
  <i type="logical" name="LBERRY"> F  </i>
  <i type="int" name="ICORELEVEL">     0</i>
  <i type="logical" name="LDAU"> F  </i>
  <i type="int" name="I_CONSTRAINED_M">     0</i>
  <separator name="electronic exchange-correlation" >
   <i type="string" name="GGA">--</i>
   <i type="int" name="VOSKOWN">     0</i>
   <i type="logical" name="LHFCALC"> F  </i>
   <i type="string" name="PRECFOCK"></i>
   <i type="logical" name="LSYMGRAD"> F  </i>
   <i type="logical" name="LHFONE"> F  </i>
   <i type="logical" name="LRHFCALC"> F  </i>
   <i type="logical" name="LTHOMAS"> F  </i>
   <i type="logical" name="LMODELHF"> F  </i>
   <i type="logical" name="LFOCKACE"> F  </i>
   <i name="ENCUT4O">     -1.00000000</i>
   <i type="int" name="EXXOEP">     0</i>
   <i type="int" name="FOURORBIT">     0</i>
   <i name="AEXX">      0.00000000</i>
   <i name="HFALPHA">      0.00000000</i>
   <i name="MCALPHA">      0.00000000</i>
   <i name="ALDAX">      1.00000000</i>
   <i name="AGGAX">      1.00000000</i>
   <i name="ALDAC">      1.00000000</i>
   <i name="AGGAC">      1.00000000</i>
   <i type="int" name="NKREDX">     1</i>
   <i type="int" name="NKREDY">     1</i>
   <i type="int" name="NKREDZ">     1</i>
   <i type="logical" name="SHIFTRED"> F  </i>
   <i type="logical" name="ODDONLY"> F  </i>
   <i type="logical" name="EVENONLY"> F  </i>
   <i type="int" name="LMAXFOCK">     0</i>
   <i type="int" name="NMAXFOCKAE">     0</i>
   <i type="logical" name="LFOCKAEDFT"> F  </i>
   <i name="HFSCREEN">      0.00000000</i>
   <i name="HFSCREENC">      0.00000000</i>
   <i type="int" name="NBANDSGWLOW">     0</i>
  </separator>
  <separator name="vdW DFT" >
   <i type="logical" name="LUSE_VDW"> F  </i>
   <i type="int" name="IVDW_NL">     2</i>
   <i type="logical" name="LSPIN_VDW"> F  </i>
   <i name="Zab_VDW">     -0.84910000</i>
   <i name="PARAM1">      0.12340000</i>
   <i name="PARAM2">      1.00000000</i>
   <i name="PARAM3">      0.00000000</i>
  </separator>
  <separator name="model GW" >
   <i type="int" name="MODEL_GW">     0</i>
   <i name="MODEL_EPS0">      5.57083829</i>
   <i name="MODEL_ALPHA">      1.00000000</i>
  </separator>
  <separator name="linear response parameters" >
   <i type="logical" name="LEPSILON"> F  </i>
   <i type="logical" name="LRPA"> F  </i>
   <i type="logical" name="LNABLA"> F  </i>
   <i type="logical" name="LVEL"> F  </i>
   <i name="CSHIFT">      0.10000000</i>
   <i name="OMEGAMAX">     -1.00000000</i>
   <i name="DEG_THRESHOLD">      0.00200000</i>
   <i name="RTIME">     -0.10000000</i>
   <i name="WPLASMAI">      0.00000000</i>
   <v name="DFIELD">      0.00000000      0.00000000      0.00000000</v>
   <v name="WPLASMA">      0.00000000      0.00000000      0.00000000      0.00000000      0.00000000      0.00000000      0.00000000      0.00000000      0.00000000</v>
  </separator>
  <separator name="orbital magnetization" >
   <i type="logical" name="NUCIND"> F  </i>
   <v name="MAGPOS">      0.00000000      0.00000000      0.00000000</v>
   <i type="logical" name="LNICSALL"> T  </i>
   <i type="logical" name="ORBITALMAG"> F  </i>
   <i type="logical" name="LMAGBLOCH"> F  </i>
   <i type="logical" name="LCHIMAG"> F  </i>
   <i type="logical" name="LGAUGE"> T  </i>
   <i type="int" name="MAGATOM">     0</i>
   <v name="MAGDIPOL">      0.00000000      0.00000000      0.00000000</v>
   <v name="AVECCONST">      0.00000000      0.00000000      0.00000000</v>
  </separator>
  <separator name="response functions" >
   <i type="logical" name="LALL_IN_ONE"> F  </i>
   <i type="int" name="IALL_IN_ONE">    -1</i>
   <i type="int" name="NBANDS_WAVE">    -1</i>
   <i type="logical" name="LFINITE_TEMPERATURE"> F  </i>
   <i type="logical" name="LADDER"> F  </i>
   <i type="logical" name="LRPAFORCE"> F  </i>
   <i type="logical" name="LFXC"> F  </i>
   <i type="logical" name="LHARTREE"> T  </i>
   <i type="int" name="IBSE">     0</i>
   <v type="int" name="KPOINT">    -1     0     0     0</v>
   <i type="logical" name="LTCTC"> F  </i>
   <i type="logical" name="LTCTE"> F  </i>
   <i type="logical" name="LTETE"> F  </i>
   <i type="logical" name="LTRIPLET"> F  </i>
   <i type="logical" name="LFXCEPS"> F  </i>
   <i type="logical" name="LFXHEG"> F  </i>
   <i type="int" name="NATURALO">     2</i>
   <i type="logical" name="LHOLEGF"> F  </i>
   <i type="logical" name="L2ORDER"> F  </i>
   <i type="logical" name="LDMP1"> F  </i>
   <i type="logical" name="LMP2LT"> F  </i>
   <i type="logical" name="LSMP2LT"> F  </i>
   <i type="logical" name="LGWLF"> F  </i>
   <i name="ENCUTGW">     -1.60000002</i>
   <i name="ENCUTGWSOFT">     -1.60000002</i>
   <i name="ENCUTLF">     -1.00000000</i>
   <i type="logical" name="LESF_SPLINES"> F  </i>
   <i type="int" name="LMAXMP2">    -1</i>
   <i name="SCISSOR">      0.00000000</i>
   <i type="int" name="NOMEGA">     0</i>
   <i type="int" name="NOMEGAR">     0</i>
   <i type="int" name="NBANDSGW">    -1</i>
   <i type="int" name="NBANDSO">    -1</i>
   <i type="int" name="NBANDSV">    -1</i>
   <i type="int" name="NELMGW">     1</i>
   <i type="int" name="NELMHF">     1</i>
   <i type="int" name="DIM">     3</i>
   <i type="int" name="IESPILON">     4</i>
   <i type="int" name="ANTIRES">     0</i>
   <i name="OMEGAMAX">    -30.00000000</i>
   <i name="OMEGAMIN">    -30.00000000</i>
   <i name="OMEGATL">   -200.00000000</i>
   <i type="int" name="OMEGAGRID">     0</i>
   <i name="CSHIFT">     -0.10000000</i>
   <i type="logical" name="LSELFENERGY"> F  </i>
   <i type="logical" name="LSPECTRAL"> F  </i>
   <i type="logical" name="LSPECTRALGW"> F  </i>
   <i type="logical" name="LSINGLES"> F  </i>
   <i type="logical" name="LFERMIGW"> F  </i>
   <i type="logical" name="ODDONLYGW"> F  </i>
   <i type="logical" name="EVENONLYGW"> F  </i>
   <i type="int" name="NKREDLFX">     1</i>
   <i type="int" name="NKREDLFY">     1</i>
   <i type="int" name="NKREDLFZ">     1</i>
   <i type="int" name="MAXMEM">  2800</i>
   <i type="int" name="TELESCOPE">     0</i>
   <i type="int" name="NTAUPAR">    -1</i>
   <i type="int" name="NOMEGAPAR">    -1</i>
   <i name="DAMP_NEWTON">      0.80000001</i>
   <i name="LAMBDA">      1.00000000</i>
  </separator>
  <separator name="External order field" >
   <i name="OFIELD_KAPPA">      0.00000000</i>
   <v name="OFIELD_K">      0.00000000      0.00000000      0.00000000</v>
   <i name="OFIELD_Q6_NEAR">      0.00000000</i>
   <i name="OFIELD_Q6_FAR">      0.00000000</i>
   <i name="OFIELD_A">      0.00000000</i>
  </separator>
  <separator name="optional k-points parameters" >
   <i type="int" name="KPOINTS_OPT_MODE">     1</i>
   <i type="logical" name="LKPOINTS_OPT"> F  </i>
  </separator>
 </parameters>
 <atominfo>
  <atoms>       8 </atoms>
  <types>       2 </types>
  <array name="atoms" >
   <dimension dim="1">ion</dimension>
   <field type="string">element</field>
   <field type="int">atomtype</field>
   <set>
    <rc><c>Mg</c><c>   1</c></rc>
    <rc><c>Mg</c><c>   1</c></rc>
    <rc><c>Mg</c><c>   1</c></rc>
    <rc><c>Mg</c><c>   1</c></rc>
    <rc><c>O </c><c>   2</c></rc>
    <rc><c>O </c><c>   2</c></rc>
    <rc><c>O </c><c>   2</c></rc>
    <rc><c>O </c><c>   2</c></rc>
   </set>
  </array>
  <array name="atomtypes" >
   <dimension dim="1">type</dimension>
   <field type="int">atomspertype</field>
   <field type="string">element</field>
   <field>mass</field>
   <field>valence</field>
   <field type="string">pseudopotential</field>
   <set>
    <rc><c>   4</c><c>Mg</c><c>     24.30500000</c><c>      8.00000000</c><c>  PAW_PBE Mg_pv 13Apr2007               </c></rc>
    <rc><c>   4</c><c>O </c><c>     16.00000000</c><c>      6.00000000</c><c>  PAW_PBE O 08Apr2002                   </c></rc>
   </set>
  </array>
 </atominfo>
 <structure name="initialpos" >
  <crystal>
   <varray name="basis" >
    <v>       4.20358651       0.00000002       0.00000028 </v>
    <v>       0.00000002       4.20358531      -0.00000102 </v>
    <v>       0.00000028      -0.00000102       4.20358113 </v>
   </varray>
   <i name="volume">     74.27784381 </i>
   <varray name="rec_basis" >
    <v>       0.23789209      -0.00000000      -0.00000002 </v>
    <v>      -0.00000000       0.23789216       0.00000006 </v>
    <v>      -0.00000002       0.00000006       0.23789240 </v>
   </varray>
  </crystal>
  <varray name="positions" >
   <v>       0.99999911       0.00000007       0.00000182 </v>
   <v>       0.00000154       0.49999921       0.50000016 </v>
   <v>       0.50000014       0.00000146       0.49999981 </v>
   <v>       0.49999748       0.49999782       0.99999846 </v>
   <v>       0.49999927       0.00000107       0.99999993 </v>
   <v>       0.50000031       0.49999930       0.50000010 </v>
   <v>       0.00000180       0.00000164       0.49999999 </v>
   <v>       0.00000034       0.49999943       0.99999972 </v>
  </varray>
 </structure>
 <calculation>
  <scstep>
   <time name="dav">    0.11    0.11</time>
   <time name="total">    0.57    0.59</time>
   <energy>
    <i name="alphaZ">    279.82697468 </i>
    <i name="ewald">  -3857.91173391 </i>
    <i name="hartreedc">  -1224.41076265 </i>
    <i name="XCdc">    277.85685169 </i>
    <i name="pawpsdc">   4373.77661930 </i>
    <i name="pawaedc">  -4859.05701278 </i>
    <i name="eentropy">      0.00000000 </i>
    <i name="bandstr">  -1010.95910786 </i>
    <i name="atom">   5956.37376898 </i>
    <i name="e_fr_energy">    -64.50440256 </i>
    <i name="e_wo_entrp">    -64.50440256 </i>
    <i name="e_0_energy">    -64.50440256 </i>
   </energy>
  </scstep>
  <scstep>
   <time name="diag">    0.02    0.02</time>
   <time name="diis">    0.07    0.07</time>
   <time name="orth">    0.00    0.00</time>
   <time name="total">    0.56    0.57</time>
   <energy>
    <i name="alphaZ">    279.82697468 </i>
    <i name="ewald">  -3857.91173391 </i>
    <i name="hartreedc">  -1224.40877743 </i>
    <i name="XCdc">    277.85663775 </i>
    <i name="pawpsdc">   4373.77614348 </i>
    <i name="pawaedc">  -4859.05566263 </i>
    <i name="eentropy">      0.00000000 </i>
    <i name="bandstr">  -1010.96175331 </i>
    <i name="atom">   5956.37376898 </i>
    <i name="e_fr_energy">    -64.50440241 </i>
    <i name="e_wo_entrp">    -64.50440241 </i>
    <i name="e_0_energy">    -64.50440241 </i>
   </energy>
  </scstep>
  <structure>
   <crystal>
    <varray name="basis" >
     <v>       4.20358651       0.00000002       0.00000028 </v>
     <v>       0.00000002       4.20358531      -0.00000102 </v>
     <v>       0.00000028      -0.00000102       4.20358113 </v>
    </varray>
    <i name="volume">     74.27784381 </i>
    <varray name="rec_basis" >
     <v>       0.23789209      -0.00000000      -0.00000002 </v>
     <v>      -0.00000000       0.23789216       0.00000006 </v>
     <v>      -0.00000002       0.00000006       0.23789240 </v>
    </varray>
   </crystal>
   <varray name="positions" >
    <v>       0.99999911       0.00000007       0.00000182 </v>
    <v>       0.00000154       0.49999921       0.50000016 </v>
    <v>       0.50000014       0.00000146       0.49999981 </v>
    <v>       0.49999748       0.49999782       0.99999846 </v>
    <v>       0.49999927       0.00000107       0.99999993 </v>
    <v>       0.50000031       0.49999930       0.50000010 </v>
    <v>       0.00000180       0.00000164       0.49999999 </v>
    <v>       0.00000034       0.49999943       0.99999972 </v>
   </varray>
  </structure>
  <varray name="forces" >
   <v>       0.00001748      -0.00003318      -0.00009624 </v>
   <v>      -0.00008612       0.00007919      -0.00000699 </v>
   <v>       0.00002776      -0.00009898       0.00001279 </v>
   <v>       0.00014056       0.00014142       0.00007691 </v>
   <v>       0.00003564      -0.00009447       0.00000988 </v>
   <v>       0.00001924       0.00007234      -0.00003401 </v>
   <v>      -0.00010035      -0.00011477       0.00001940 </v>
   <v>      -0.00005421       0.00004845       0.00001826 </v>
  </varray>
  <varray name="stress" >
   <v>       0.50798008      -0.00015780      -0.00053029 </v>
   <v>      -0.00015787       0.50940625       0.00149921 </v>
   <v>      -0.00053021       0.00149957       0.51274941 </v>
  </varray>
  <energy>
   <i name="e_fr_energy">    -64.50440241 </i>
   <i name="e_wo_entrp">    -64.50440241 </i>
   <i name="e_0_energy">    -64.50440241 </i>
  </energy>
  <time name="totalsc">    2.74    2.97</time>
  <eigenvalues>
   <array>
    <dimension dim="1">band</dimension>
    <dimension dim="2">kpoint</dimension>
    <dimension dim="3">spin</dimension>
    <field>eigene</field>
    <field>occ</field>
    <set>
     <set comment="spin 1">
      <set comment="kpoint 1">
       <r>  -37.7303    1.0000 </r>
       <r>  -37.7303    1.0000 </r>
       <r>  -37.7303    1.0000 </r>
       <r>  -37.6870    1.0000 </r>
       <r>  -37.6870    1.0000 </r>
       <r>  -37.6870    1.0000 </r>
       <r>  -37.6870    1.0000 </r>
       <r>  -37.6869    1.0000 </r>
       <r>  -37.6869    1.0000 </r>
       <r>  -37.6583    1.0000 </r>
       <r>  -37.6583    1.0000 </r>
       <r>  -37.6583    1.0000 </r>
       <r>  -15.8130    1.0000 </r>
       <r>  -14.2989    1.0000 </r>
       <r>  -14.2989    1.0000 </r>
       <r>  -14.2989    1.0000 </r>
       <r>   -1.6775    1.0000 </r>
       <r>   -1.6775    1.0000 </r>
       <r>   -1.6775    1.0000 </r>
       <r>    1.0445    1.0000 </r>
       <r>    1.0445    1.0000 </r>
       <r>    1.0445    1.0000 </r>
       <r>    1.0445    1.0000 </r>
       <r>    1.0445    1.0000 </r>
       <r>    1.0445    1.0000 </r>
       <r>    2.4192    1.0000 </r>
       <r>    2.4192    1.0000 </r>
       <r>    2.4192    1.0000 </r>
       <r>    8.0976    0.0000 </r>
       <r>   12.4656    0.0000 </r>
       <r>   12.4657    0.0000 </r>
       <r>   12.4657    0.0000 </r>
       <r>   13.5563    0.0000 </r>
      </set>
      <set comment="kpoint 2">
       <r>  -37.7194    1.0000 </r>
       <r>  -37.7194    1.0000 </r>
       <r>  -37.7146    1.0000 </r>
       <r>  -37.6978    1.0000 </r>
       <r>  -37.6978    1.0000 </r>
       <r>  -37.6888    1.0000 </r>
       <r>  -37.6888    1.0000 </r>
       <r>  -37.6798    1.0000 </r>
       <r>  -37.6798    1.0000 </r>
       <r>  -37.6788    1.0000 </r>
       <r>  -37.6655    1.0000 </r>
       <r>  -37.6655    1.0000 </r>
       <r>  -15.4352    1.0000 </r>
       <r>  -14.6758    1.0000 </r>
       <r>  -14.2499    1.0000 </r>
       <r>  -14.2499    1.0000 </r>
       <r>   -1.1499    1.0000 </r>
       <r>   -1.1499    1.0000 </r>
       <r>   -1.0243    1.0000 </r>
       <r>    0.1647    1.0000 </r>
       <r>    0.1647    1.0000 </r>
       <r>    0.7319    1.0000 </r>
       <r>    0.7319    1.0000 </r>
       <r>    0.8587    1.0000 </r>
       <r>    1.3434    1.0000 </r>
       <r>    1.3434    1.0000 </r>
       <r>    2.0245    1.0000 </r>
       <r>    2.0245    1.0000 </r>
       <r>   10.0041    0.0000 </r>
       <r>   12.7950    0.0000 </r>
       <r>   13.4048    0.0000 </r>
       <r>   13.9736    0.0000 </r>
       <r>   13.9736    0.0000 </r>
      </set>
      <set comment="kpoint 3">
       <r>  -37.7194    1.0000 </r>
       <r>  -37.7194    1.0000 </r>
       <r>  -37.7146    1.0000 </r>
       <r>  -37.6978    1.0000 </r>
       <r>  -37.6978    1.0000 </r>
       <r>  -37.6888    1.0000 </r>
       <r>  -37.6888    1.0000 </r>
       <r>  -37.6798    1.0000 </r>
       <r>  -37.6798    1.0000 </r>
       <r>  -37.6788    1.0000 </r>
       <r>  -37.6655    1.0000 </r>
       <r>  -37.6655    1.0000 </r>
       <r>  -15.4352    1.0000 </r>
       <r>  -14.6758    1.0000 </r>
       <r>  -14.2499    1.0000 </r>
       <r>  -14.2499    1.0000 </r>
       <r>   -1.1499    1.0000 </r>
       <r>   -1.1499    1.0000 </r>
       <r>   -1.0243    1.0000 </r>
       <r>    0.1647    1.0000 </r>
       <r>    0.1647    1.0000 </r>
       <r>    0.7319    1.0000 </r>
       <r>    0.7319    1.0000 </r>
       <r>    0.8587    1.0000 </r>
       <r>    1.3434    1.0000 </r>
       <r>    1.3434    1.0000 </r>
       <r>    2.0245    1.0000 </r>
       <r>    2.0245    1.0000 </r>
       <r>   10.0041    0.0000 </r>
       <r>   12.7950    0.0000 </r>
       <r>   13.4048    0.0000 </r>
       <r>   13.9736    0.0000 </r>
       <r>   13.9736    0.0000 </r>
      </set>
      <set comment="kpoint 4">
       <r>  -37.7194    1.0000 </r>
       <r>  -37.7194    1.0000 </r>
       <r>  -37.7146    1.0000 </r>
       <r>  -37.6978    1.0000 </r>
       <r>  -37.6978    1.0000 </r>
       <r>  -37.6888    1.0000 </r>
       <r>  -37.6888    1.0000 </r>
       <r>  -37.6798    1.0000 </r>
       <r>  -37.6798    1.0000 </r>
       <r>  -37.6788    1.0000 </r>
       <r>  -37.6655    1.0000 </r>
       <r>  -37.6655    1.0000 </r>
       <r>  -15.4352    1.0000 </r>
       <r>  -14.6757    1.0000 </r>
       <r>  -14.2499    1.0000 </r>
       <r>  -14.2499    1.0000 </r>
       <r>   -1.1499    1.0000 </r>
       <r>   -1.1499    1.0000 </r>
       <r>   -1.0243    1.0000 </r>
       <r>    0.1647    1.0000 </r>
       <r>    0.1647    1.0000 </r>
       <r>    0.7319    1.0000 </r>
       <r>    0.7319    1.0000 </r>
       <r>    0.8587    1.0000 </r>
       <r>    1.3434    1.0000 </r>
       <r>    1.3434    1.0000 </r>
       <r>    2.0245    1.0000 </r>
       <r>    2.0245    1.0000 </r>
       <r>   10.0041    0.0000 </r>
       <r>   12.7950    0.0000 </r>
       <r>   13.4048    0.0000 </r>
       <r>   13.9736    0.0000 </r>
       <r>   13.9737    0.0000 </r>
      </set>
      <set comment="kpoint 5">
       <r>  -37.7197    1.0000 </r>
       <r>  -37.7197    1.0000 </r>
       <r>  -37.7147    1.0000 </r>
       <r>  -37.7094    1.0000 </r>
       <r>  -37.7009    1.0000 </r>
       <r>  -37.6896    1.0000 </r>
       <r>  -37.6896    1.0000 </r>
       <r>  -37.6755    1.0000 </r>
       <r>  -37.6745    1.0000 </r>
       <r>  -37.6745    1.0000 </r>
       <r>  -37.6735    1.0000 </r>
       <r>  -37.6612    1.0000 </r>
       <r>  -15.1185    1.0000 </r>
       <r>  -14.5208    1.0000 </r>
       <r>  -14.5208    1.0000 </r>
       <r>  -14.3049    1.0000 </r>
       <r>   -1.1271    1.0000 </r>
       <r>   -1.1271    1.0000 </r>
       <r>   -0.8117    1.0000 </r>
       <r>   -0.6544    1.0000 </r>
       <r>   -0.1938    1.0000 </r>
       <r>    0.5580    1.0000 </r>
       <r>    0.5580    1.0000 </r>
       <r>    1.3795    1.0000 </r>
       <r>    1.3795    1.0000 </r>
       <r>    1.3901    1.0000 </r>
       <r>    1.4748    1.0000 </r>
       <r>    2.0844    1.0000 </r>
       <r>   11.0924    0.0000 </r>
       <r>   13.5099    0.0000 </r>
       <r>   13.5099    0.0000 </r>
       <r>   13.7526    0.0000 </r>
       <r>   14.5205    0.0000 </r>
      </set>
      <set comment="kpoint 6">
       <r>  -37.7197    1.0000 </r>
       <r>  -37.7197    1.0000 </r>
       <r>  -37.7147    1.0000 </r>
       <r>  -37.7094    1.0000 </r>
       <r>  -37.7009    1.0000 </r>
       <r>  -37.6896    1.0000 </r>
       <r>  -37.6896    1.0000 </r>
       <r>  -37.6755    1.0000 </r>
       <r>  -37.6745    1.0000 </r>
       <r>  -37.6745    1.0000 </r>
       <r>  -37.6735    1.0000 </r>
       <r>  -37.6612    1.0000 </r>
       <r>  -15.1185    1.0000 </r>
       <r>  -14.5208    1.0000 </r>
       <r>  -14.5208    1.0000 </r>
       <r>  -14.3049    1.0000 </r>
       <r>   -1.1271    1.0000 </r>
       <r>   -1.1271    1.0000 </r>
       <r>   -0.8117    1.0000 </r>
       <r>   -0.6545    1.0000 </r>
       <r>   -0.1938    1.0000 </r>
       <r>    0.5580    1.0000 </r>
       <r>    0.5580    1.0000 </r>
       <r>    1.3795    1.0000 </r>
       <r>    1.3795    1.0000 </r>
       <r>    1.3901    1.0000 </r>
       <r>    1.4748    1.0000 </r>
       <r>    2.0844    1.0000 </r>
       <r>   11.0924    0.0000 </r>
       <r>   13.5099    0.0000 </r>
       <r>   13.5099    0.0000 </r>
       <r>   13.7526    0.0000 </r>
       <r>   14.5205    0.0000 </r>
      </set>
      <set comment="kpoint 7">
       <r>  -37.7197    1.0000 </r>
       <r>  -37.7197    1.0000 </r>
       <r>  -37.7147    1.0000 </r>
       <r>  -37.7094    1.0000 </r>
       <r>  -37.7009    1.0000 </r>
       <r>  -37.6896    1.0000 </r>
       <r>  -37.6896    1.0000 </r>
       <r>  -37.6755    1.0000 </r>
       <r>  -37.6745    1.0000 </r>
       <r>  -37.6745    1.0000 </r>
       <r>  -37.6735    1.0000 </r>
       <r>  -37.6612    1.0000 </r>
       <r>  -15.1185    1.0000 </r>
       <r>  -14.5208    1.0000 </r>
       <r>  -14.5208    1.0000 </r>
       <r>  -14.3049    1.0000 </r>
       <r>   -1.1271    1.0000 </r>
       <r>   -1.1271    1.0000 </r>
       <r>   -0.8117    1.0000 </r>
       <r>   -0.6545    1.0000 </r>
       <r>   -0.1938    1.0000 </r>
       <r>    0.5580    1.0000 </r>
       <r>    0.5580    1.0000 </r>
       <r>    1.3795    1.0000 </r>
       <r>    1.3795    1.0000 </r>
       <r>    1.3901    1.0000 </r>
       <r>    1.4748    1.0000 </r>
       <r>    2.0844    1.0000 </r>
       <r>   11.0924    0.0000 </r>
       <r>   13.5099    0.0000 </r>
       <r>   13.5099    0.0000 </r>
       <r>   13.7526    0.0000 </r>
       <r>   14.5205    0.0000 </r>
      </set>
      <set comment="kpoint 8">
       <r>  -37.7197    1.0000 </r>
       <r>  -37.7197    1.0000 </r>
       <r>  -37.7147    1.0000 </r>
       <r>  -37.7094    1.0000 </r>
       <r>  -37.7009    1.0000 </r>
       <r>  -37.6896    1.0000 </r>
       <r>  -37.6896    1.0000 </r>
       <r>  -37.6755    1.0000 </r>
       <r>  -37.6745    1.0000 </r>
       <r>  -37.6745    1.0000 </r>
       <r>  -37.6735    1.0000 </r>
       <r>  -37.6612    1.0000 </r>
       <r>  -15.1185    1.0000 </r>
       <r>  -14.5208    1.0000 </r>
       <r>  -14.5208    1.0000 </r>
       <r>  -14.3049    1.0000 </r>
       <r>   -1.1271    1.0000 </r>
       <r>   -1.1271    1.0000 </r>
       <r>   -0.8117    1.0000 </r>
       <r>   -0.6544    1.0000 </r>
       <r>   -0.1938    1.0000 </r>
       <r>    0.5580    1.0000 </r>
       <r>    0.5580    1.0000 </r>
       <r>    1.3795    1.0000 </r>
       <r>    1.3795    1.0000 </r>
       <r>    1.3901    1.0000 </r>
       <r>    1.4748    1.0000 </r>
       <r>    2.0844    1.0000 </r>
       <r>   11.0924    0.0000 </r>
       <r>   13.5099    0.0000 </r>
       <r>   13.5099    0.0000 </r>
       <r>   13.7526    0.0000 </r>
       <r>   14.5205    0.0000 </r>
      </set>
      <set comment="kpoint 9">
       <r>  -37.7197    1.0000 </r>
       <r>  -37.7197    1.0000 </r>
       <r>  -37.7147    1.0000 </r>
       <r>  -37.7094    1.0000 </r>
       <r>  -37.7009    1.0000 </r>
       <r>  -37.6896    1.0000 </r>
       <r>  -37.6896    1.0000 </r>
       <r>  -37.6755    1.0000 </r>
       <r>  -37.6745    1.0000 </r>
       <r>  -37.6745    1.0000 </r>
       <r>  -37.6735    1.0000 </r>
       <r>  -37.6612    1.0000 </r>
       <r>  -15.1185    1.0000 </r>
       <r>  -14.5208    1.0000 </r>
       <r>  -14.5208    1.0000 </r>
       <r>  -14.3049    1.0000 </r>
       <r>   -1.1271    1.0000 </r>
       <r>   -1.1271    1.0000 </r>
       <r>   -0.8117    1.0000 </r>
       <r>   -0.6545    1.0000 </r>
       <r>   -0.1938    1.0000 </r>
       <r>    0.5580    1.0000 </r>
       <r>    0.5580    1.0000 </r>
       <r>    1.3795    1.0000 </r>
       <r>    1.3795    1.0000 </r>
       <r>    1.3901    1.0000 </r>
       <r>    1.4748    1.0000 </r>
       <r>    2.0844    1.0000 </r>
       <r>   11.0924    0.0000 </r>
       <r>   13.5099    0.0000 </r>
       <r>   13.5100    0.0000 </r>
       <r>   13.7526    0.0000 </r>
       <r>   14.5208    0.0000 </r>
      </set>
      <set comment="kpoint 10">
       <r>  -37.7197    1.0000 </r>
       <r>  -37.7197    1.0000 </r>
       <r>  -37.7147    1.0000 </r>
       <r>  -37.7094    1.0000 </r>
       <r>  -37.7009    1.0000 </r>
       <r>  -37.6896    1.0000 </r>
       <r>  -37.6896    1.0000 </r>
       <r>  -37.6755    1.0000 </r>
       <r>  -37.6745    1.0000 </r>
       <r>  -37.6745    1.0000 </r>
       <r>  -37.6735    1.0000 </r>
       <r>  -37.6612    1.0000 </r>
       <r>  -15.1185    1.0000 </r>
       <r>  -14.5208    1.0000 </r>
       <r>  -14.5208    1.0000 </r>
       <r>  -14.3049    1.0000 </r>
       <r>   -1.1271    1.0000 </r>
       <r>   -1.1271    1.0000 </r>
       <r>   -0.8117    1.0000 </r>
       <r>   -0.6545    1.0000 </r>
       <r>   -0.1938    1.0000 </r>
       <r>    0.5580    1.0000 </r>
       <r>    0.5580    1.0000 </r>
       <r>    1.3795    1.0000 </r>
       <r>    1.3795    1.0000 </r>
       <r>    1.3901    1.0000 </r>
       <r>    1.4748    1.0000 </r>
       <r>    2.0844    1.0000 </r>
       <r>   11.0924    0.0000 </r>
       <r>   13.5099    0.0000 </r>
       <r>   13.5099    0.0000 </r>
       <r>   13.7526    0.0000 </r>
       <r>   14.5206    0.0000 </r>
      </set>
      <set comment="kpoint 11">
       <r>  -37.7349    1.0000 </r>
       <r>  -37.7349    1.0000 </r>
       <r>  -37.7349    1.0000 </r>
       <r>  -37.7240    1.0000 </r>
       <r>  -37.6787    1.0000 </r>
       <r>  -37.6787    1.0000 </r>
       <r>  -37.6787    1.0000 </r>
       <r>  -37.6720    1.0000 </r>
       <r>  -37.6720    1.0000 </r>
       <r>  -37.6720    1.0000 </r>
       <r>  -37.6648    1.0000 </r>
       <r>  -37.6648    1.0000 </r>
       <r>  -14.8742    1.0000 </r>
       <r>  -14.4616    1.0000 </r>
       <r>  -14.4616    1.0000 </r>
       <r>  -14.4616    1.0000 </r>
       <r>   -1.7611    1.0000 </r>
       <r>   -1.7611    1.0000 </r>
       <r>   -1.7611    1.0000 </r>
       <r>   -1.2539    1.0000 </r>
       <r>    0.9643    1.0000 </r>
       <r>    0.9643    1.0000 </r>
       <r>    0.9643    1.0000 </r>
       <r>    1.5508    1.0000 </r>
       <r>    1.5508    1.0000 </r>
       <r>    1.5508    1.0000 </r>
       <r>    1.8974    1.0000 </r>
       <r>    1.8974    1.0000 </r>
       <r>   11.0614    0.0000 </r>
       <r>   12.4038    0.0000 </r>
       <r>   12.4039    0.0000 </r>
       <r>   12.4056    0.0000 </r>
       <r>   15.8255    0.0000 </r>
      </set>
      <set comment="kpoint 12">
       <r>  -37.7349    1.0000 </r>
       <r>  -37.7349    1.0000 </r>
       <r>  -37.7349    1.0000 </r>
       <r>  -37.7240    1.0000 </r>
       <r>  -37.6787    1.0000 </r>
       <r>  -37.6787    1.0000 </r>
       <r>  -37.6787    1.0000 </r>
       <r>  -37.6720    1.0000 </r>
       <r>  -37.6720    1.0000 </r>
       <r>  -37.6720    1.0000 </r>
       <r>  -37.6648    1.0000 </r>
       <r>  -37.6648    1.0000 </r>
       <r>  -14.8742    1.0000 </r>
       <r>  -14.4616    1.0000 </r>
       <r>  -14.4616    1.0000 </r>
       <r>  -14.4616    1.0000 </r>
       <r>   -1.7611    1.0000 </r>
       <r>   -1.7611    1.0000 </r>
       <r>   -1.7611    1.0000 </r>
       <r>   -1.2539    1.0000 </r>
       <r>    0.9643    1.0000 </r>
       <r>    0.9643    1.0000 </r>
       <r>    0.9643    1.0000 </r>
       <r>    1.5508    1.0000 </r>
       <r>    1.5508    1.0000 </r>
       <r>    1.5508    1.0000 </r>
       <r>    1.8974    1.0000 </r>
       <r>    1.8974    1.0000 </r>
       <r>   11.0614    0.0000 </r>
       <r>   12.4038    0.0000 </r>
       <r>   12.4039    0.0000 </r>
       <r>   12.4061    0.0000 </r>
       <r>   15.8256    0.0000 </r>
      </set>
      <set comment="kpoint 13">
       <r>  -37.7349    1.0000 </r>
       <r>  -37.7349    1.0000 </r>
       <r>  -37.7349    1.0000 </r>
       <r>  -37.7240    1.0000 </r>
       <r>  -37.6787    1.0000 </r>
       <r>  -37.6787    1.0000 </r>
       <r>  -37.6787    1.0000 </r>
       <r>  -37.6720    1.0000 </r>
       <r>  -37.6720    1.0000 </r>
       <r>  -37.6720    1.0000 </r>
       <r>  -37.6648    1.0000 </r>
       <r>  -37.6648    1.0000 </r>
       <r>  -14.8742    1.0000 </r>
       <r>  -14.4616    1.0000 </r>
       <r>  -14.4616    1.0000 </r>
       <r>  -14.4616    1.0000 </r>
       <r>   -1.7611    1.0000 </r>
       <r>   -1.7611    1.0000 </r>
       <r>   -1.7611    1.0000 </r>
       <r>   -1.2539    1.0000 </r>
       <r>    0.9643    1.0000 </r>
       <r>    0.9643    1.0000 </r>
       <r>    0.9643    1.0000 </r>
       <r>    1.5508    1.0000 </r>
       <r>    1.5508    1.0000 </r>
       <r>    1.5508    1.0000 </r>
       <r>    1.8974    1.0000 </r>
       <r>    1.8974    1.0000 </r>
       <r>   11.0614    0.0000 </r>
       <r>   12.4038    0.0000 </r>
       <r>   12.4050    0.0000 </r>
       <r>   12.4051    0.0000 </r>
       <r>   15.8255    0.0000 </r>
      </set>
      <set comment="kpoint 14">
       <r>  -37.7349    1.0000 </r>
       <r>  -37.7349    1.0000 </r>
       <r>  -37.7349    1.0000 </r>
       <r>  -37.7240    1.0000 </r>
       <r>  -37.6787    1.0000 </r>
       <r>  -37.6787    1.0000 </r>
       <r>  -37.6787    1.0000 </r>
       <r>  -37.6720    1.0000 </r>
       <r>  -37.6720    1.0000 </r>
       <r>  -37.6720    1.0000 </r>
       <r>  -37.6648    1.0000 </r>
       <r>  -37.6648    1.0000 </r>
       <r>  -14.8742    1.0000 </r>
       <r>  -14.4616    1.0000 </r>
       <r>  -14.4616    1.0000 </r>
       <r>  -14.4616    1.0000 </r>
       <r>   -1.7611    1.0000 </r>
       <r>   -1.7611    1.0000 </r>
       <r>   -1.7611    1.0000 </r>
       <r>   -1.2539    1.0000 </r>
       <r>    0.9643    1.0000 </r>
       <r>    0.9643    1.0000 </r>
       <r>    0.9643    1.0000 </r>
       <r>    1.5508    1.0000 </r>
       <r>    1.5508    1.0000 </r>
       <r>    1.5508    1.0000 </r>
       <r>    1.8974    1.0000 </r>
       <r>    1.8974    1.0000 </r>
       <r>   11.0614    0.0000 </r>
       <r>   12.4038    0.0000 </r>
       <r>   12.4069    0.0000 </r>
       <r>   12.4070    0.0000 </r>
       <r>   15.8255    0.0000 </r>
      </set>
     </set>
    </set>
   </array>
  </eigenvalues>
  <separator name="orbital magnetization" >
   <v name="MAGDIPOLOUT">      0.00000000      0.00000000      0.00000000</v>
  </separator>
  <dos>
   <i name="efermi">      2.44882407 </i>
   <total>
    <array>
     <dimension dim="1">gridpoints</dimension>
     <dimension dim="2">spin</dimension>
     <field>energy</field>
     <field>total</field>
     <field>integrated</field>
     <set>
      <set comment="spin 1">
       <r>   -40.4129     0.0000     0.0000 </r>
       <r>   -40.2165     0.0000     0.0000 </r>
       <r>   -40.0202     0.0000     0.0000 </r>
       <r>   -39.8238     0.0000     0.0000 </r>
       <r>   -39.6274     0.0000     0.0000 </r>
       <r>   -39.4310     0.0000     0.0000 </r>
       <r>   -39.2346     0.0000     0.0000 </r>
       <r>   -39.0382     0.0000     0.0000 </r>
       <r>   -38.8418     0.0000     0.0000 </r>
       <r>   -38.6454     0.0000     0.0000 </r>
       <r>   -38.4491     0.0000     0.0000 </r>
       <r>   -38.2527     0.0000     0.0000 </r>
       <r>   -38.0563     0.0000     0.0000 </r>
       <r>   -37.8599     0.0000     0.0000 </r>
       <r>   -37.6635   680.8496    22.7383 </r>
       <r>   -37.4671     0.0000    24.0000 </r>
       <r>   -37.2707     0.0000    24.0000 </r>
       <r>   -37.0743     0.0000    24.0000 </r>
       <r>   -36.8779     0.0000    24.0000 </r>
       <r>   -36.6816     0.0000    24.0000 </r>
       <r>   -36.4852     0.0000    24.0000 </r>
       <r>   -36.2888     0.0000    24.0000 </r>
       <r>   -36.0924     0.0000    24.0000 </r>
       <r>   -35.8960     0.0000    24.0000 </r>
       <r>   -35.6996     0.0000    24.0000 </r>
       <r>   -35.5032     0.0000    24.0000 </r>
       <r>   -35.3068     0.0000    24.0000 </r>
       <r>   -35.1105     0.0000    24.0000 </r>
       <r>   -34.9141     0.0000    24.0000 </r>
       <r>   -34.7177     0.0000    24.0000 </r>
       <r>   -34.5213     0.0000    24.0000 </r>
       <r>   -34.3249     0.0000    24.0000 </r>
       <r>   -34.1285     0.0000    24.0000 </r>
       <r>   -33.9321     0.0000    24.0000 </r>
       <r>   -33.7357     0.0000    24.0000 </r>
       <r>   -33.5393     0.0000    24.0000 </r>
       <r>   -33.3430     0.0000    24.0000 </r>
       <r>   -33.1466     0.0000    24.0000 </r>
       <r>   -32.9502     0.0000    24.0000 </r>
       <r>   -32.7538     0.0000    24.0000 </r>
       <r>   -32.5574     0.0000    24.0000 </r>
       <r>   -32.3610     0.0000    24.0000 </r>
       <r>   -32.1646     0.0000    24.0000 </r>
       <r>   -31.9682     0.0000    24.0000 </r>
       <r>   -31.7718     0.0000    24.0000 </r>
       <r>   -31.5755     0.0000    24.0000 </r>
       <r>   -31.3791     0.0000    24.0000 </r>
       <r>   -31.1827     0.0000    24.0000 </r>
       <r>   -30.9863     0.0000    24.0000 </r>
       <r>   -30.7899     0.0000    24.0000 </r>
       <r>   -30.5935     0.0000    24.0000 </r>
       <r>   -30.3971     0.0000    24.0000 </r>
       <r>   -30.2007     0.0000    24.0000 </r>
       <r>   -30.0044     0.0000    24.0000 </r>
       <r>   -29.8080     0.0000    24.0000 </r>
       <r>   -29.6116     0.0000    24.0000 </r>
       <r>   -29.4152     0.0000    24.0000 </r>
       <r>   -29.2188     0.0000    24.0000 </r>
       <r>   -29.0224     0.0000    24.0000 </r>
       <r>   -28.8260     0.0000    24.0000 </r>
       <r>   -28.6296     0.0000    24.0000 </r>
       <r>   -28.4332     0.0000    24.0000 </r>
       <r>   -28.2369     0.0000    24.0000 </r>
       <r>   -28.0405     0.0000    24.0000 </r>
       <r>   -27.8441     0.0000    24.0000 </r>
       <r>   -27.6477     0.0000    24.0000 </r>
       <r>   -27.4513     0.0000    24.0000 </r>
       <r>   -27.2549     0.0000    24.0000 </r>
       <r>   -27.0585     0.0000    24.0000 </r>
       <r>   -26.8621     0.0000    24.0000 </r>
       <r>   -26.6658     0.0000    24.0000 </r>
       <r>   -26.4694     0.0000    24.0000 </r>
       <r>   -26.2730     0.0000    24.0000 </r>
       <r>   -26.0766     0.0000    24.0000 </r>
       <r>   -25.8802     0.0000    24.0000 </r>
       <r>   -25.6838     0.0000    24.0000 </r>
       <r>   -25.4874     0.0000    24.0000 </r>
       <r>   -25.2910     0.0000    24.0000 </r>
       <r>   -25.0946     0.0000    24.0000 </r>
       <r>   -24.8983     0.0000    24.0000 </r>
       <r>   -24.7019     0.0000    24.0000 </r>
       <r>   -24.5055     0.0000    24.0000 </r>
       <r>   -24.3091     0.0000    24.0000 </r>
       <r>   -24.1127     0.0000    24.0000 </r>
       <r>   -23.9163     0.0000    24.0000 </r>
       <r>   -23.7199     0.0000    24.0000 </r>
       <r>   -23.5235     0.0000    24.0000 </r>
       <r>   -23.3271     0.0000    24.0000 </r>
       <r>   -23.1308     0.0000    24.0000 </r>
       <r>   -22.9344     0.0000    24.0000 </r>
       <r>   -22.7380     0.0000    24.0000 </r>
       <r>   -22.5416     0.0000    24.0000 </r>
       <r>   -22.3452     0.0000    24.0000 </r>
       <r>   -22.1488     0.0000    24.0000 </r>
       <r>   -21.9524     0.0000    24.0000 </r>
       <r>   -21.7560     0.0000    24.0000 </r>
       <r>   -21.5597     0.0000    24.0000 </r>
       <r>   -21.3633     0.0000    24.0000 </r>
       <r>   -21.1669     0.0000    24.0000 </r>
       <r>   -20.9705     0.0000    24.0000 </r>
       <r>   -20.7741     0.0000    24.0000 </r>
       <r>   -20.5777     0.0000    24.0000 </r>
       <r>   -20.3813     0.0000    24.0000 </r>
       <r>   -20.1849     0.0000    24.0000 </r>
       <r>   -19.9885     0.0000    24.0000 </r>
       <r>   -19.7922     0.0000    24.0000 </r>
       <r>   -19.5958     0.0000    24.0000 </r>
       <r>   -19.3994     0.0000    24.0000 </r>
       <r>   -19.2030     0.0000    24.0000 </r>
       <r>   -19.0066     0.0000    24.0000 </r>
       <r>   -18.8102     0.0000    24.0000 </r>
       <r>   -18.6138     0.0000    24.0000 </r>
       <r>   -18.4174     0.0000    24.0000 </r>
       <r>   -18.2211     0.0000    24.0000 </r>
       <r>   -18.0247     0.0000    24.0000 </r>
       <r>   -17.8283     0.0000    24.0000 </r>
       <r>   -17.6319     0.0000    24.0000 </r>
       <r>   -17.4355     0.0000    24.0000 </r>
       <r>   -17.2391     0.0000    24.0000 </r>
       <r>   -17.0427     0.0000    24.0000 </r>
       <r>   -16.8463     0.0000    24.0000 </r>
       <r>   -16.6499     0.0000    24.0000 </r>
       <r>   -16.4536     0.0000    24.0000 </r>
       <r>   -16.2572     0.0000    24.0000 </r>
       <r>   -16.0608     0.0000    24.0000 </r>
       <r>   -15.8644     0.0000    24.0000 </r>
       <r>   -15.6680     0.1322    24.0064 </r>
       <r>   -15.4716     0.7330    24.0834 </r>
       <r>   -15.2752     2.9224    24.4313 </r>
       <r>   -15.0788     5.3687    25.2143 </r>
       <r>   -14.8824     1.9352    25.9104 </r>
       <r>   -14.6861     0.3772    26.0000 </r>
       <r>   -14.4897    32.8111    28.0362 </r>
       <r>   -14.2933    25.1142    31.4044 </r>
       <r>   -14.0969     0.0000    32.0000 </r>
       <r>   -13.9005     0.0000    32.0000 </r>
       <r>   -13.7041     0.0000    32.0000 </r>
       <r>   -13.5077     0.0000    32.0000 </r>
       <r>   -13.3113     0.0000    32.0000 </r>
       <r>   -13.1150     0.0000    32.0000 </r>
       <r>   -12.9186     0.0000    32.0000 </r>
       <r>   -12.7222     0.0000    32.0000 </r>
       <r>   -12.5258     0.0000    32.0000 </r>
       <r>   -12.3294     0.0000    32.0000 </r>
       <r>   -12.1330     0.0000    32.0000 </r>
       <r>   -11.9366     0.0000    32.0000 </r>
       <r>   -11.7402     0.0000    32.0000 </r>
       <r>   -11.5438     0.0000    32.0000 </r>
       <r>   -11.3475     0.0000    32.0000 </r>
       <r>   -11.1511     0.0000    32.0000 </r>
       <r>   -10.9547     0.0000    32.0000 </r>
       <r>   -10.7583     0.0000    32.0000 </r>
       <r>   -10.5619     0.0000    32.0000 </r>
       <r>   -10.3655     0.0000    32.0000 </r>
       <r>   -10.1691     0.0000    32.0000 </r>
       <r>    -9.9727     0.0000    32.0000 </r>
       <r>    -9.7764     0.0000    32.0000 </r>
       <r>    -9.5800     0.0000    32.0000 </r>
       <r>    -9.3836     0.0000    32.0000 </r>
       <r>    -9.1872     0.0000    32.0000 </r>
       <r>    -8.9908     0.0000    32.0000 </r>
       <r>    -8.7944     0.0000    32.0000 </r>
       <r>    -8.5980     0.0000    32.0000 </r>
       <r>    -8.4016     0.0000    32.0000 </r>
       <r>    -8.2052     0.0000    32.0000 </r>
       <r>    -8.0089     0.0000    32.0000 </r>
       <r>    -7.8125     0.0000    32.0000 </r>
       <r>    -7.6161     0.0000    32.0000 </r>
       <r>    -7.4197     0.0000    32.0000 </r>
       <r>    -7.2233     0.0000    32.0000 </r>
       <r>    -7.0269     0.0000    32.0000 </r>
       <r>    -6.8305     0.0000    32.0000 </r>
       <r>    -6.6341     0.0000    32.0000 </r>
       <r>    -6.4377     0.0000    32.0000 </r>
       <r>    -6.2414     0.0000    32.0000 </r>
       <r>    -6.0450     0.0000    32.0000 </r>
       <r>    -5.8486     0.0000    32.0000 </r>
       <r>    -5.6522     0.0000    32.0000 </r>
       <r>    -5.4558     0.0000    32.0000 </r>
       <r>    -5.2594     0.0000    32.0000 </r>
       <r>    -5.0630     0.0000    32.0000 </r>
       <r>    -4.8666     0.0000    32.0000 </r>
       <r>    -4.6703     0.0000    32.0000 </r>
       <r>    -4.4739     0.0000    32.0000 </r>
       <r>    -4.2775     0.0000    32.0000 </r>
       <r>    -4.0811     0.0000    32.0000 </r>
       <r>    -3.8847     0.0000    32.0000 </r>
       <r>    -3.6883     0.0000    32.0000 </r>
       <r>    -3.4919     0.0000    32.0000 </r>
       <r>    -3.2955     0.0000    32.0000 </r>
       <r>    -3.0991     0.0000    32.0000 </r>
       <r>    -2.9028     0.0000    32.0000 </r>
       <r>    -2.7064     0.0000    32.0000 </r>
       <r>    -2.5100     0.0000    32.0000 </r>
       <r>    -2.3136     0.0000    32.0000 </r>
       <r>    -2.1172     0.0000    32.0000 </r>
       <r>    -1.9208     0.0000    32.0000 </r>
       <r>    -1.7244     3.3684    32.2972 </r>
       <r>    -1.5280     5.1301    33.0131 </r>
       <r>    -1.3317     8.1337    34.3151 </r>
       <r>    -1.1353    51.5174    36.7506 </r>
       <r>    -0.9389     5.4274    37.9632 </r>
       <r>    -0.7425     2.1960    38.8007 </r>
       <r>    -0.5461     1.4872    39.1730 </r>
       <r>    -0.3497     1.2839    39.4464 </r>
       <r>    -0.1533     3.2734    39.7588 </r>
       <r>     0.0431     3.2961    40.4299 </r>
       <r>     0.2395     2.2933    40.9690 </r>
       <r>     0.4358     1.7400    41.3645 </r>
       <r>     0.6322    14.2688    42.5156 </r>
       <r>     0.8286     8.7423    44.9499 </r>
       <r>     1.0250     3.0713    46.1816 </r>
       <r>     1.2214     3.4535    46.6879 </r>
       <r>     1.4178    30.2030    49.3432 </r>
       <r>     1.6142     5.3196    52.3161 </r>
       <r>     1.8106     4.3470    53.1655 </r>
       <r>     2.0070    11.5190    54.5490 </r>
       <r>     2.2033     2.8695    55.9292 </r>
       <r>     2.3997     0.0080    55.9999 </r>
       <r>     2.5961     0.0000    56.0000 </r>
       <r>     2.7925     0.0000    56.0000 </r>
       <r>     2.9889     0.0000    56.0000 </r>
       <r>     3.1853     0.0000    56.0000 </r>
       <r>     3.3817     0.0000    56.0000 </r>
       <r>     3.5781     0.0000    56.0000 </r>
       <r>     3.7744     0.0000    56.0000 </r>
       <r>     3.9708     0.0000    56.0000 </r>
       <r>     4.1672     0.0000    56.0000 </r>
       <r>     4.3636     0.0000    56.0000 </r>
       <r>     4.5600     0.0000    56.0000 </r>
       <r>     4.7564     0.0000    56.0000 </r>
       <r>     4.9528     0.0000    56.0000 </r>
       <r>     5.1492     0.0000    56.0000 </r>
       <r>     5.3456     0.0000    56.0000 </r>
       <r>     5.5419     0.0000    56.0000 </r>
       <r>     5.7383     0.0000    56.0000 </r>
       <r>     5.9347     0.0000    56.0000 </r>
       <r>     6.1311     0.0000    56.0000 </r>
       <r>     6.3275     0.0000    56.0000 </r>
       <r>     6.5239     0.0000    56.0000 </r>
       <r>     6.7203     0.0000    56.0000 </r>
       <r>     6.9167     0.0000    56.0000 </r>
       <r>     7.1130     0.0000    56.0000 </r>
       <r>     7.3094     0.0000    56.0000 </r>
       <r>     7.5058     0.0000    56.0000 </r>
       <r>     7.7022     0.0000    56.0000 </r>
       <r>     7.8986     0.0000    56.0000 </r>
       <r>     8.0950     0.0000    56.0000 </r>
       <r>     8.2914     0.0025    56.0002 </r>
       <r>     8.4878     0.0102    56.0013 </r>
       <r>     8.6842     0.0231    56.0045 </r>
       <r>     8.8805     0.0411    56.0107 </r>
       <r>     9.0769     0.0643    56.0210 </r>
       <r>     9.2733     0.0927    56.0363 </r>
       <r>     9.4697     0.1263    56.0578 </r>
       <r>     9.6661     0.1651    56.0863 </r>
       <r>     9.8625     0.2090    56.1229 </r>
       <r>    10.0589     0.3372    56.1709 </r>
       <r>    10.2553     0.6529    56.2686 </r>
       <r>    10.4517     0.9389    56.4254 </r>
       <r>    10.6480     1.1951    56.6354 </r>
       <r>    10.8444     1.4216    56.8929 </r>
       <r>    11.0408     1.6183    57.1919 </r>
       <r>    11.2372     3.7718    58.0000 </r>
       <r>    11.4336     0.0000    58.0000 </r>
       <r>    11.6300     0.0000    58.0000 </r>
       <r>    11.8264     0.0000    58.0000 </r>
       <r>    12.0228     0.0000    58.0000 </r>
       <r>    12.2191     0.0000    58.0000 </r>
       <r>    12.4155     2.3163    58.2347 </r>
       <r>    12.6119     2.6402    58.6039 </r>
       <r>    12.8083     4.1508    59.2753 </r>
       <r>    13.0047     4.7827    60.1555 </r>
       <r>    13.2011     5.2335    61.1420 </r>
       <r>    13.3975     5.5030    62.1993 </r>
       <r>    13.5939     3.5192    63.2304 </r>
       <r>    13.7903     3.3586    63.6364 </r>
       <r>    13.9866     0.5978    64.0833 </r>
       <r>    14.1830     1.2347    64.2679 </r>
       <r>    14.3794     1.5896    64.5498 </r>
       <r>    14.5758     1.4731    64.8648 </r>
       <r>    14.7722     1.2492    65.1319 </r>
       <r>    14.9686     1.0425    65.3566 </r>
       <r>    15.1650     0.8528    65.5424 </r>
       <r>    15.3614     0.6803    65.6927 </r>
       <r>    15.5577     0.5249    65.8108 </r>
       <r>    15.7541     0.3866    65.9000 </r>
       <r>    15.9505     0.3772    66.0000 </r>
       <r>    16.1469     0.0000    66.0000 </r>
       <r>    16.3433     0.0000    66.0000 </r>
       <r>    16.5397     0.0000    66.0000 </r>
       <r>    16.7361     0.0000    66.0000 </r>
       <r>    16.9325     0.0000    66.0000 </r>
       <r>    17.1289     0.0000    66.0000 </r>
       <r>    17.3252     0.0000    66.0000 </r>
       <r>    17.5216     0.0000    66.0000 </r>
       <r>    17.7180     0.0000    66.0000 </r>
       <r>    17.9144     0.0000    66.0000 </r>
       <r>    18.1108     0.0000    66.0000 </r>
       <r>    18.3072     0.0000    66.0000 </r>
       <r>    18.5036     0.0000    66.0000 </r>
      </set>
     </set>
    </array>
   </total>
   <partial>
    <array>
     <dimension dim="1">gridpoints</dimension>
     <dimension dim="2">spin</dimension>
     <dimension dim="3">ion</dimension>
     <field>energy</field>
     <field>    s</field>
     <field>   py</field>
     <field>   pz</field>
     <field>   px</field>
     <field>  dxy</field>
     <field>  dyz</field>
     <field>  dz2</field>
     <field>  dxz</field>
     <field>x2-y2</field>
     <set>
      <set comment="ion 1">
       <set comment="spin 1">
        <r>   -40.4129     0.0000     0.0000     0.0000     0.0000     0.0000     0.0000     0.0000     0.0000     0.0000 </r>
        <r>   -40.2165     0.0000     0.0000     0.0000     0.0000     0.0000     0.0000     0.0000     0.0000     0.0000 </r>
        <r>   -40.0202     0.0000     0.0000     0.0000     0.0000     0.0000     0.0000     0.0000     0.0000     0.0000 </r>
        <r>   -39.8238     0.0000     0.0000     0.0000     0.0000     0.0000     0.0000     0.0000     0.0000     0.0000 </r>
        <r>   -39.6274     0.0000     0.0000     0.0000     0.0000     0.0000     0.0000     0.0000     0.0000     0.0000 </r>
        <r>   -39.4310     0.0000     0.0000     0.0000     0.0000     0.0000     0.0000     0.0000     0.0000     0.0000 </r>
        <r>   -39.2346     0.0000     0.0000     0.0000     0.0000     0.0000     0.0000     0.0000     0.0000     0.0000 </r>
        <r>   -39.0382     0.0000     0.0000     0.0000     0.0000     0.0000     0.0000     0.0000     0.0000     0.0000 </r>
        <r>   -38.8418     0.0000     0.0000     0.0000     0.0000     0.0000     0.0000     0.0000     0.0000     0.0000 </r>
        <r>   -38.6454     0.0000     0.0000     0.0000     0.0000     0.0000     0.0000     0.0000     0.0000     0.0000 </r>
        <r>   -38.4491     0.0000     0.0000     0.0000     0.0000     0.0000     0.0000     0.0000     0.0000     0.0000 </r>
        <r>   -38.2527     0.0000     0.0000     0.0000     0.0000     0.0000     0.0000     0.0000     0.0000     0.0000 </r>
        <r>   -38.0563     0.0000     0.0000     0.0000     0.0000     0.0000     0.0000     0.0000     0.0000     0.0000 </r>
        <r>   -37.8599     0.0000     0.0000     0.0000     0.0000     0.0000     0.0000     0.0000     0.0000     0.0000 </r>
        <r>   -37.6635     0.0000    52.4730    70.9992    46.0641     0.0000     0.0000     0.0000     0.0000     0.0000 </r>
        <r>   -37.4671     0.0000     0.0000     0.0000     0.0000     0.0000     0.0000     0.0000     0.0000     0.0000 </r>
        <r>   -37.2707     0.0000     0.0000     0.0000     0.0000     0.0000     0.0000     0.0000     0.0000     0.0000 </r>
        <r>   -37.0743     0.0000     0.0000     0.0000     0.0000     0.0000     0.0000     0.0000     0.0000     0.0000 </r>
        <r>   -36.8779     0.0000     0.0000     0.0000     0.0000     0.0000     0.0000     0.0000     0.0000     0.0000 </r>
        <r>   -36.6816     0.0000     0.0000     0.0000     0.0000     0.0000     0.0000     0.0000     0.0000     0.0000 </r>
        <r>   -36.4852     0.0000     0.0000     0.0000     0.0000     0.0000     0.0000     0.0000     0.0000     0.0000 </r>
        <r>   -36.2888     0.0000     0.0000     0.0000     0.0000     0.0000     0.0000     0.0000     0.0000     0.0000 </r>
        <r>   -36.0924     0.0000     0.0000     0.0000     0.0000     0.0000     0.0000     0.0000     0.0000     0.0000 </r>
        <r>   -35.8960     0.0000     0.0000     0.0000     0.0000     0.0000     0.0000     0.0000     0.0000     0.0000 </r>
        <r>   -35.6996     0.0000     0.0000     0.0000     0.0000     0.0000     0.0000     0.0000     0.0000     0.0000 </r>
        <r>   -35.5032     0.0000     0.0000     0.0000     0.0000     0.0000     0.0000     0.0000     0.0000     0.0000 </r>
        <r>   -35.3068     0.0000     0.0000     0.0000     0.0000     0.0000     0.0000     0.0000     0.0000     0.0000 </r>
        <r>   -35.1105     0.0000     0.0000     0.0000     0.0000     0.0000     0.0000     0.0000     0.0000     0.0000 </r>
        <r>   -34.9141     0.0000     0.0000     0.0000     0.0000     0.0000     0.0000     0.0000     0.0000     0.0000 </r>
        <r>   -34.7177     0.0000     0.0000     0.0000     0.0000     0.0000     0.0000     0.0000     0.0000     0.0000 </r>
        <r>   -34.5213     0.0000     0.0000     0.0000     0.0000     0.0000     0.0000     0.0000     0.0000     0.0000 </r>
        <r>   -34.3249     0.0000     0.0000     0.0000     0.0000     0.0000     0.0000     0.0000     0.0000     0.0000 </r>
        <r>   -34.1285     0.0000     0.0000     0.0000     0.0000     0.0000     0.0000     0.0000     0.0000     0.0000 </r>
        <r>   -33.9321     0.0000     0.0000     0.0000     0.0000     0.0000     0.0000     0.0000     0.0000     0.0000 </r>
        <r>   -33.7357     0.0000     0.0000     0.0000     0.0000     0.0000     0.0000     0.0000     0.0000     0.0000 </r>
        <r>   -33.5393     0.0000     0.0000     0.0000     0.0000     0.0000     0.0000     0.0000     0.0000     0.0000 </r>
        <r>   -33.3430     0.0000     0.0000     0.0000     0.0000     0.0000     0.0000     0.0000     0.0000     0.0000 </r>
        <r>   -33.1466     0.0000     0.0000     0.0000     0.0000     0.0000     0.0000     0.0000     0.0000     0.0000 </r>
        <r>   -32.9502     0.0000     0.0000     0.0000     0.0000     0.0000     0.0000     0.0000     0.0000     0.0000 </r>
        <r>   -32.7538     0.0000     0.0000     0.0000     0.0000     0.0000     0.0000     0.0000     0.0000     0.0000 </r>
        <r>   -32.5574     0.0000     0.0000     0.0000     0.0000     0.0000     0.0000     0.0000     0.0000     0.0000 </r>
        <r>   -32.3610     0.0000     0.0000     0.0000     0.0000     0.0000     0.0000     0.0000     0.0000     0.0000 </r>
        <r>   -32.1646     0.0000     0.0000     0.0000     0.0000     0.0000     0.0000     0.0000     0.0000     0.0000 </r>
        <r>   -31.9682     0.0000     0.0000     0.0000     0.0000     0.0000     0.0000     0.0000     0.0000     0.0000 </r>
        <r>   -31.7718     0.0000     0.0000     0.0000     0.0000     0.0000     0.0000     0.0000     0.0000     0.0000 </r>
        <r>   -31.5755     0.0000     0.0000     0.0000     0.0000     0.0000     0.0000     0.0000     0.0000     0.0000 </r>
        <r>   -31.3791     0.0000     0.0000     0.0000     0.0000     0.0000     0.0000     0.0000     0.0000     0.0000 </r>
        <r>   -31.1827     0.0000     0.0000     0.0000     0.0000     0.0000     0.0000     0.0000     0.0000     0.0000 </r>
        <r>   -30.9863     0.0000     0.0000     0.0000     0.0000     0.0000     0.0000     0.0000     0.0000     0.0000 </r>
        <r>   -30.7899     0.0000     0.0000     0.0000     0.0000     0.0000     0.0000     0.0000     0.0000     0.0000 </r>
        <r>   -30.5935     0.0000     0.0000     0.0000     0.0000     0.0000     0.0000     0.0000     0.0000     0.0000 </r>
        <r>   -30.3971     0.0000     0.0000     0.0000     0.0000     0.0000     0.0000     0.0000     0.0000     0.0000 </r>
        <r>   -30.2007     0.0000     0.0000     0.0000     0.0000     0.0000     0.0000     0.0000     0.0000     0.0000 </r>
        <r>   -30.0044     0.0000     0.0000     0.0000     0.0000     0.0000     0.0000     0.0000     0.0000     0.0000 </r>
        <r>   -29.8080     0.0000     0.0000     0.0000     0.0000     0.0000     0.0000     0.0000     0.0000     0.0000 </r>
        <r>   -29.6116     0.0000     0.0000     0.0000     0.0000     0.0000     0.0000     0.0000     0.0000     0.0000 </r>
        <r>   -29.4152     0.0000     0.0000     0.0000     0.0000     0.0000     0.0000     0.0000     0.0000     0.0000 </r>
        <r>   -29.2188     0.0000     0.0000     0.0000     0.0000     0.0000     0.0000     0.0000     0.0000     0.0000 </r>
        <r>   -29.0224     0.0000     0.0000     0.0000     0.0000     0.0000     0.0000     0.0000     0.0000     0.0000 </r>
        <r>   -28.8260     0.0000     0.0000     0.0000     0.0000     0.0000     0.0000     0.0000     0.0000     0.0000 </r>
        <r>   -28.6296     0.0000     0.0000     0.0000     0.0000     0.0000     0.0000     0.0000     0.0000     0.0000 </r>
        <r>   -28.4332     0.0000     0.0000     0.0000     0.0000     0.0000     0.0000     0.0000     0.0000     0.0000 </r>
        <r>   -28.2369     0.0000     0.0000     0.0000     0.0000     0.0000     0.0000     0.0000     0.0000     0.0000 </r>
        <r>   -28.0405     0.0000     0.0000     0.0000     0.0000     0.0000     0.0000     0.0000     0.0000     0.0000 </r>
        <r>   -27.8441     0.0000     0.0000     0.0000     0.0000     0.0000     0.0000     0.0000     0.0000     0.0000 </r>
        <r>   -27.6477     0.0000     0.0000     0.0000     0.0000     0.0000     0.0000     0.0000     0.0000     0.0000 </r>
        <r>   -27.4513     0.0000     0.0000     0.0000     0.0000     0.0000     0.0000     0.0000     0.0000     0.0000 </r>
        <r>   -27.2549     0.0000     0.0000     0.0000     0.0000     0.0000     0.0000     0.0000     0.0000     0.0000 </r>
        <r>   -27.0585     0.0000     0.0000     0.0000     0.0000     0.0000     0.0000     0.0000     0.0000     0.0000 </r>
        <r>   -26.8621     0.0000     0.0000     0.0000     0.0000     0.0000     0.0000     0.0000     0.0000     0.0000 </r>
        <r>   -26.6658     0.0000     0.0000     0.0000     0.0000     0.0000     0.0000     0.0000     0.0000     0.0000 </r>
        <r>   -26.4694     0.0000     0.0000     0.0000     0.0000     0.0000     0.0000     0.0000     0.0000     0.0000 </r>
        <r>   -26.2730     0.0000     0.0000     0.0000     0.0000     0.0000     0.0000     0.0000     0.0000     0.0000 </r>
        <r>   -26.0766     0.0000     0.0000     0.0000     0.0000     0.0000     0.0000     0.0000     0.0000     0.0000 </r>
        <r>   -25.8802     0.0000     0.0000     0.0000     0.0000     0.0000     0.0000     0.0000     0.0000     0.0000 </r>
        <r>   -25.6838     0.0000     0.0000     0.0000     0.0000     0.0000     0.0000     0.0000     0.0000     0.0000 </r>
        <r>   -25.4874     0.0000     0.0000     0.0000     0.0000     0.0000     0.0000     0.0000     0.0000     0.0000 </r>
        <r>   -25.2910     0.0000     0.0000     0.0000     0.0000     0.0000     0.0000     0.0000     0.0000     0.0000 </r>
        <r>   -25.0946     0.0000     0.0000     0.0000     0.0000     0.0000     0.0000     0.0000     0.0000     0.0000 </r>
        <r>   -24.8983     0.0000     0.0000     0.0000     0.0000     0.0000     0.0000     0.0000     0.0000     0.0000 </r>
        <r>   -24.7019     0.0000     0.0000     0.0000     0.0000     0.0000     0.0000     0.0000     0.0000     0.0000 </r>
        <r>   -24.5055     0.0000     0.0000     0.0000     0.0000     0.0000     0.0000     0.0000     0.0000     0.0000 </r>
        <r>   -24.3091     0.0000     0.0000     0.0000     0.0000     0.0000     0.0000     0.0000     0.0000     0.0000 </r>
        <r>   -24.1127     0.0000     0.0000     0.0000     0.0000     0.0000     0.0000     0.0000     0.0000     0.0000 </r>
        <r>   -23.9163     0.0000     0.0000     0.0000     0.0000     0.0000     0.0000     0.0000     0.0000     0.0000 </r>
        <r>   -23.7199     0.0000     0.0000     0.0000     0.0000     0.0000     0.0000     0.0000     0.0000     0.0000 </r>
        <r>   -23.5235     0.0000     0.0000     0.0000     0.0000     0.0000     0.0000     0.0000     0.0000     0.0000 </r>
        <r>   -23.3271     0.0000     0.0000     0.0000     0.0000     0.0000     0.0000     0.0000     0.0000     0.0000 </r>
        <r>   -23.1308     0.0000     0.0000     0.0000     0.0000     0.0000     0.0000     0.0000     0.0000     0.0000 </r>
        <r>   -22.9344     0.0000     0.0000     0.0000     0.0000     0.0000     0.0000     0.0000     0.0000     0.0000 </r>
        <r>   -22.7380     0.0000     0.0000     0.0000     0.0000     0.0000     0.0000     0.0000     0.0000     0.0000 </r>
        <r>   -22.5416     0.0000     0.0000     0.0000     0.0000     0.0000     0.0000     0.0000     0.0000     0.0000 </r>
        <r>   -22.3452     0.0000     0.0000     0.0000     0.0000     0.0000     0.0000     0.0000     0.0000     0.0000 </r>
        <r>   -22.1488     0.0000     0.0000     0.0000     0.0000     0.0000     0.0000     0.0000     0.0000     0.0000 </r>
        <r>   -21.9524     0.0000     0.0000     0.0000     0.0000     0.0000     0.0000     0.0000     0.0000     0.0000 </r>
        <r>   -21.7560     0.0000     0.0000     0.0000     0.0000     0.0000     0.0000     0.0000     0.0000     0.0000 </r>
        <r>   -21.5597     0.0000     0.0000     0.0000     0.0000     0.0000     0.0000     0.0000     0.0000     0.0000 </r>
        <r>   -21.3633     0.0000     0.0000     0.0000     0.0000     0.0000     0.0000     0.0000     0.0000     0.0000 </r>
        <r>   -21.1669     0.0000     0.0000     0.0000     0.0000     0.0000     0.0000     0.0000     0.0000     0.0000 </r>
        <r>   -20.9705     0.0000     0.0000     0.0000     0.0000     0.0000     0.0000     0.0000     0.0000     0.0000 </r>
        <r>   -20.7741     0.0000     0.0000     0.0000     0.0000     0.0000     0.0000     0.0000     0.0000     0.0000 </r>
        <r>   -20.5777     0.0000     0.0000     0.0000     0.0000     0.0000     0.0000     0.0000     0.0000     0.0000 </r>
        <r>   -20.3813     0.0000     0.0000     0.0000     0.0000     0.0000     0.0000     0.0000     0.0000     0.0000 </r>
        <r>   -20.1849     0.0000     0.0000     0.0000     0.0000     0.0000     0.0000     0.0000     0.0000     0.0000 </r>
        <r>   -19.9885     0.0000     0.0000     0.0000     0.0000     0.0000     0.0000     0.0000     0.0000     0.0000 </r>
        <r>   -19.7922     0.0000     0.0000     0.0000     0.0000     0.0000     0.0000     0.0000     0.0000     0.0000 </r>
        <r>   -19.5958     0.0000     0.0000     0.0000     0.0000     0.0000     0.0000     0.0000     0.0000     0.0000 </r>
        <r>   -19.3994     0.0000     0.0000     0.0000     0.0000     0.0000     0.0000     0.0000     0.0000     0.0000 </r>
        <r>   -19.2030     0.0000     0.0000     0.0000     0.0000     0.0000     0.0000     0.0000     0.0000     0.0000 </r>
        <r>   -19.0066     0.0000     0.0000     0.0000     0.0000     0.0000     0.0000     0.0000     0.0000     0.0000 </r>
        <r>   -18.8102     0.0000     0.0000     0.0000     0.0000     0.0000     0.0000     0.0000     0.0000     0.0000 </r>
        <r>   -18.6138     0.0000     0.0000     0.0000     0.0000     0.0000     0.0000     0.0000     0.0000     0.0000 </r>
        <r>   -18.4174     0.0000     0.0000     0.0000     0.0000     0.0000     0.0000     0.0000     0.0000     0.0000 </r>
        <r>   -18.2211     0.0000     0.0000     0.0000     0.0000     0.0000     0.0000     0.0000     0.0000     0.0000 </r>
        <r>   -18.0247     0.0000     0.0000     0.0000     0.0000     0.0000     0.0000     0.0000     0.0000     0.0000 </r>
        <r>   -17.8283     0.0000     0.0000     0.0000     0.0000     0.0000     0.0000     0.0000     0.0000     0.0000 </r>
        <r>   -17.6319     0.0000     0.0000     0.0000     0.0000     0.0000     0.0000     0.0000     0.0000     0.0000 </r>
        <r>   -17.4355     0.0000     0.0000     0.0000     0.0000     0.0000     0.0000     0.0000     0.0000     0.0000 </r>
        <r>   -17.2391     0.0000     0.0000     0.0000     0.0000     0.0000     0.0000     0.0000     0.0000     0.0000 </r>
        <r>   -17.0427     0.0000     0.0000     0.0000     0.0000     0.0000     0.0000     0.0000     0.0000     0.0000 </r>
        <r>   -16.8463     0.0000     0.0000     0.0000     0.0000     0.0000     0.0000     0.0000     0.0000     0.0000 </r>
        <r>   -16.6499     0.0000     0.0000     0.0000     0.0000     0.0000     0.0000     0.0000     0.0000     0.0000 </r>
        <r>   -16.4536     0.0000     0.0000     0.0000     0.0000     0.0000     0.0000     0.0000     0.0000     0.0000 </r>
        <r>   -16.2572     0.0000     0.0000     0.0000     0.0000     0.0000     0.0000     0.0000     0.0000     0.0000 </r>
        <r>   -16.0608     0.0000     0.0000     0.0000     0.0000     0.0000     0.0000     0.0000     0.0000     0.0000 </r>
        <r>   -15.8644     0.0000     0.0000     0.0000     0.0000     0.0000     0.0000     0.0000     0.0000     0.0000 </r>
        <r>   -15.6680     0.0010     0.0001     0.0001     0.0001     0.0000     0.0000     0.0000     0.0000     0.0000 </r>
        <r>   -15.4716     0.0055     0.0003     0.0003     0.0003     0.0000     0.0000     0.0000     0.0000     0.0000 </r>
        <r>   -15.2752     0.0181     0.0017     0.0017     0.0017     0.0000     0.0000     0.0001     0.0000     0.0001 </r>
        <r>   -15.0788     0.0264     0.0042     0.0042     0.0042     0.0000     0.0000     0.0002     0.0000     0.0002 </r>
        <r>   -14.8824     0.0073     0.0019     0.0019     0.0019     0.0000     0.0000     0.0000     0.0000     0.0000 </r>
        <r>   -14.6861     0.0012     0.0004     0.0004     0.0004     0.0000     0.0000     0.0000     0.0000     0.0000 </r>
[...]
        <r>  0.0000  0.2072  0.0207  0.0968  0.0000  0.0000  0.0000  0.0000  0.0000 </r>
        <r>  0.0000  0.0409  0.0118  0.0966  0.0000  0.0000  0.0000  0.0000  0.0000 </r>
        <r>  0.0000  0.0000  0.0000  0.0000  0.0000  0.0000  0.0000  0.0000  0.0000 </r>
        <r>  0.0000  0.0000  0.0000  0.0000  0.0000  0.0000  0.0000  0.0000  0.0000 </r>
        <r>  0.0000  0.0000  0.0000  0.0000  0.0000  0.0000  0.0000  0.0000  0.0000 </r>
        <r>  0.0000  0.0000  0.0000  0.0000  0.0000  0.0000  0.0000  0.0000  0.0000 </r>
       </set>
       <set comment="band 10">
        <r>  0.0000  0.0252  0.2366  0.1075  0.0000  0.0000  0.0000  0.0000  0.0000 </r>
        <r>  0.0000  0.0974  0.0002  0.1075  0.0000  0.0000  0.0000  0.0000  0.0000 </r>
        <r>  0.0000  0.0252  0.0002  0.0304  0.0000  0.0000  0.0000  0.0000  0.0000 </r>
        <r>  0.0000  0.0975  0.2367  0.0304  0.0000  0.0000  0.0000  0.0000  0.0000 </r>
        <r>  0.0000  0.0000  0.0000  0.0000  0.0000  0.0000  0.0000  0.0000  0.0000 </r>
        <r>  0.0000  0.0000  0.0000  0.0000  0.0000  0.0000  0.0000  0.0000  0.0000 </r>
        <r>  0.0000  0.0000  0.0000  0.0000  0.0000  0.0000  0.0000  0.0000  0.0000 </r>
        <r>  0.0000  0.0000  0.0000  0.0000  0.0000  0.0000  0.0000  0.0000  0.0000 </r>
       </set>
       <set comment="band 11">
        <r>  0.0000  0.1363  0.0012  0.1115  0.0000  0.0000  0.0000  0.0000  0.0000 </r>
        <r>  0.0000  0.1360  0.0012  0.1113  0.0000  0.0000  0.0000  0.0000  0.0000 </r>
        <r>  0.0000  0.1360  0.0012  0.1112  0.0000  0.0000  0.0000  0.0000  0.0000 </r>
        <r>  0.0000  0.1363  0.0012  0.1115  0.0000  0.0000  0.0000  0.0000  0.0000 </r>
        <r>  0.0000  0.0000  0.0000  0.0000  0.0000  0.0000  0.0000  0.0000  0.0000 </r>
        <r>  0.0000  0.0000  0.0000  0.0000  0.0000  0.0000  0.0000  0.0000  0.0000 </r>
        <r>  0.0000  0.0000  0.0000  0.0000  0.0000  0.0000  0.0000  0.0000  0.0000 </r>
        <r>  0.0000  0.0000  0.0000  0.0000  0.0000  0.0000  0.0000  0.0000  0.0000 </r>
       </set>
       <set comment="band 12">
        <r>  0.0000  0.0297  0.1647  0.0545  0.0000  0.0000  0.0000  0.0000  0.0000 </r>
        <r>  0.0000  0.0297  0.1646  0.0545  0.0000  0.0000  0.0000  0.0000  0.0000 </r>
        <r>  0.0000  0.0297  0.1645  0.0544  0.0000  0.0000  0.0000  0.0000  0.0000 </r>
        <r>  0.0000  0.0297  0.1646  0.0545  0.0000  0.0000  0.0000  0.0000  0.0000 </r>
        <r>  0.0000  0.0000  0.0000  0.0000  0.0000  0.0000  0.0000  0.0000  0.0000 </r>
        <r>  0.0000  0.0000  0.0000  0.0000  0.0000  0.0000  0.0000  0.0000  0.0000 </r>
        <r>  0.0000  0.0000  0.0000  0.0000  0.0000  0.0000  0.0000  0.0000  0.0000 </r>
        <r>  0.0000  0.0000  0.0000  0.0000  0.0000  0.0000  0.0000  0.0000  0.0000 </r>
       </set>
       <set comment="band 13">
        <r>  0.0032  0.0011  0.0011  0.0011  0.0000  0.0000  0.0000  0.0000  0.0000 </r>
        <r>  0.0032  0.0011  0.0011  0.0011  0.0000  0.0000  0.0000  0.0000  0.0000 </r>
        <r>  0.0032  0.0011  0.0011  0.0011  0.0000  0.0000  0.0000  0.0000  0.0000 </r>
        <r>  0.0032  0.0011  0.0011  0.0011  0.0000  0.0000  0.0000  0.0000  0.0000 </r>
        <r>  0.1834  0.0001  0.0001  0.0001  0.0000  0.0000  0.0000  0.0000  0.0000 </r>
        <r>  0.1835  0.0001  0.0001  0.0001  0.0000  0.0000  0.0000  0.0000  0.0000 </r>
        <r>  0.1835  0.0001  0.0001  0.0001  0.0000  0.0000  0.0000  0.0000  0.0000 </r>
        <r>  0.1834  0.0001  0.0001  0.0001  0.0000  0.0000  0.0000  0.0000  0.0000 </r>
       </set>
       <set comment="band 14">
        <r>  0.0008  0.0003  0.0016  0.0002  0.0000  0.0000  0.0001  0.0000  0.0001 </r>
        <r>  0.0001  0.0017  0.0003  0.0024  0.0000  0.0000  0.0000  0.0000  0.0007 </r>
        <r>  0.0001  0.0024  0.0002  0.0017  0.0000  0.0000  0.0000  0.0000  0.0007 </r>
        <r>  0.0005  0.0002  0.0023  0.0003  0.0000  0.0000  0.0003  0.0000  0.0001 </r>
        <r>  0.0320  0.0000  0.0000  0.0000  0.0000  0.0000  0.0000  0.0000  0.0000 </r>
        <r>  0.3990  0.0000  0.0000  0.0000  0.0000  0.0000  0.0000  0.0000  0.0000 </r>
        <r>  0.2818  0.0000  0.0000  0.0000  0.0000  0.0000  0.0000  0.0000  0.0000 </r>
        <r>  0.0529  0.0000  0.0000  0.0000  0.0000  0.0000  0.0000  0.0000  0.0000 </r>
       </set>
       <set comment="band 15">
        <r>  0.0003  0.0002  0.0007  0.0028  0.0000  0.0000  0.0003  0.0000  0.0002 </r>
        <r>  0.0009  0.0006  0.0002  0.0008  0.0000  0.0000  0.0001  0.0000  0.0000 </r>
        <r>  0.0001  0.0009  0.0028  0.0007  0.0000  0.0000  0.0007  0.0000  0.0000 </r>
        <r>  0.0002  0.0028  0.0009  0.0002  0.0000  0.0000  0.0004  0.0000  0.0002 </r>
        <r>  0.4723  0.0000  0.0000  0.0000  0.0000  0.0000  0.0000  0.0000  0.0000 </r>
        <r>  0.1502  0.0000  0.0000  0.0000  0.0000  0.0000  0.0000  0.0000  0.0000 </r>
        <r>  0.1111  0.0000  0.0000  0.0000  0.0000  0.0000  0.0000  0.0000  0.0000 </r>
        <r>  0.0321  0.0000  0.0000  0.0000  0.0000  0.0000  0.0000  0.0000  0.0000 </r>
       </set>
       <set comment="band 16">
        <r>  0.0000  0.0029  0.0011  0.0004  0.0000  0.0000  0.0003  0.0000  0.0004 </r>
        <r>  0.0001  0.0011  0.0029  0.0002  0.0000  0.0000  0.0006  0.0000  0.0001 </r>
        <r>  0.0009  0.0001  0.0004  0.0010  0.0000  0.0000  0.0000  0.0000  0.0001 </r>
        <r>  0.0003  0.0004  0.0002  0.0029  0.0000  0.0000  0.0001  0.0000  0.0004 </r>
        <r>  0.0700  0.0000  0.0000  0.0000  0.0000  0.0000  0.0000  0.0000  0.0000 </r>
        <r>  0.0251  0.0000  0.0000  0.0000  0.0000  0.0000  0.0000  0.0000  0.0000 </r>
        <r>  0.1814  0.0000  0.0000  0.0000  0.0000  0.0000  0.0000  0.0000  0.0000 </r>
        <r>  0.4893  0.0000  0.0000  0.0000  0.0000  0.0000  0.0000  0.0000  0.0000 </r>
       </set>
       <set comment="band 17">
        <r>  0.0096  0.0004  0.0002  0.0010  0.0006  0.0007  0.0000  0.0011  0.0000 </r>
        <r>  0.0212  0.0010  0.0005  0.0016  0.0012  0.0003  0.0000  0.0006  0.0000 </r>
        <r>  0.0339  0.0016  0.0011  0.0020  0.0007  0.0005  0.0000  0.0003  0.0000 </r>
        <r>  0.0163  0.0008  0.0006  0.0011  0.0003  0.0011  0.0000  0.0007  0.0000 </r>
        <r>  0.0007  0.0306  0.0575  0.0251  0.0000  0.0000  0.0000  0.0000  0.0000 </r>
        <r>  0.0003  0.0646  0.0282  0.0482  0.0000  0.0000  0.0000  0.0000  0.0000 </r>
        <r>  0.0006  0.0404  0.0149  0.0696  0.0000  0.0000  0.0000  0.0000  0.0000 </r>
        <r>  0.0012  0.0161  0.0321  0.0344  0.0000  0.0000  0.0000  0.0000  0.0000 </r>
       </set>
       <set comment="band 18">
        <r>  0.0199  0.0007  0.0018  0.0004  0.0006  0.0011  0.0000  0.0004  0.0000 </r>
        <r>  0.0323  0.0011  0.0023  0.0010  0.0004  0.0007  0.0000  0.0006  0.0000 </r>
        <r>  0.0113  0.0003  0.0013  0.0003  0.0011  0.0006  0.0001  0.0007  0.0000 </r>
        <r>  0.0175  0.0004  0.0017  0.0006  0.0006  0.0004  0.0000  0.0011  0.0000 </r>
        <r>  0.0011  0.0259  0.0308  0.0296  0.0000  0.0000  0.0000  0.0000  0.0000 </r>
        <r>  0.0007  0.0172  0.0446  0.0545  0.0000  0.0000  0.0000  0.0000  0.0000 </r>
        <r>  0.0006  0.0554  0.0493  0.0172  0.0000  0.0000  0.0000  0.0000  0.0000 </r>
        <r>  0.0004  0.0344  0.0729  0.0298  0.0000  0.0000  0.0000  0.0000  0.0000 </r>
       </set>
       <set comment="band 19">
        <r>  0.0312  0.0019  0.0009  0.0015  0.0009  0.0002  0.0000  0.0005  0.0000 </r>
        <r>  0.0073  0.0008  0.0001  0.0003  0.0005  0.0011  0.0000  0.0009  0.0001 </r>
        <r>  0.0156  0.0011  0.0005  0.0007  0.0003  0.0009  0.0000  0.0010  0.0001 </r>
        <r>  0.0269  0.0018  0.0007  0.0013  0.0011  0.0005  0.0000  0.0002  0.0000 </r>
        <r>  0.0003  0.0589  0.0271  0.0607  0.0000  0.0000  0.0000  0.0000  0.0000 </r>
        <r>  0.0011  0.0337  0.0426  0.0127  0.0000  0.0000  0.0000  0.0000  0.0000 </r>
        <r>  0.0010  0.0196  0.0512  0.0286  0.0000  0.0000  0.0000  0.0000  0.0000 </r>
        <r>  0.0006  0.0650  0.0104  0.0512  0.0000  0.0000  0.0000  0.0000  0.0000 </r>
       </set>
       <set comment="band 20">
        <r>  0.0216  0.0002  0.0002  0.0002  0.0007  0.0007  0.0000  0.0007  0.0000 </r>
        <r>  0.0216  0.0002  0.0002  0.0002  0.0007  0.0007  0.0000  0.0007  0.0000 </r>
        <r>  0.0216  0.0002  0.0002  0.0002  0.0007  0.0007  0.0000  0.0007  0.0000 </r>
        <r>  0.0216  0.0002  0.0002  0.0002  0.0007  0.0007  0.0000  0.0007  0.0000 </r>
        <r>  0.0052  0.0396  0.0396  0.0396  0.0000  0.0000  0.0000  0.0000  0.0000 </r>
        <r>  0.0052  0.0396  0.0396  0.0396  0.0000  0.0000  0.0000  0.0000  0.0000 </r>
        <r>  0.0052  0.0396  0.0396  0.0396  0.0000  0.0000  0.0000  0.0000  0.0000 </r>
        <r>  0.0052  0.0396  0.0396  0.0396  0.0000  0.0000  0.0000  0.0000  0.0000 </r>
       </set>
       <set comment="band 21">
        <r>  0.0004  0.0019  0.0011  0.0017  0.0001  0.0004  0.0015  0.0004  0.0024 </r>
        <r>  0.0002  0.0028  0.0008  0.0028  0.0000  0.0003  0.0010  0.0003  0.0043 </r>
        <r>  0.0003  0.0026  0.0004  0.0028  0.0001  0.0003  0.0006  0.0003  0.0043 </r>
        <r>  0.0005  0.0016  0.0010  0.0019  0.0001  0.0004  0.0014  0.0004  0.0024 </r>
        <r>  0.0006  0.0394  0.0193  0.0413  0.0000  0.0000  0.0000  0.0000  0.0000 </r>
        <r>  0.0012  0.0735  0.0432  0.0768  0.0000  0.0000  0.0000  0.0000  0.0000 </r>
        <r>  0.0012  0.0787  0.0469  0.0778  0.0000  0.0000  0.0000  0.0000  0.0000 </r>
        <r>  0.0008  0.0493  0.0306  0.0498  0.0000  0.0000  0.0000  0.0000  0.0000 </r>
       </set>
       <set comment="band 22">
        <r>  0.0005  0.0002  0.0022  0.0018  0.0006  0.0001  0.0025  0.0002  0.0009 </r>
        <r>  0.0006  0.0000  0.0020  0.0012  0.0007  0.0002  0.0023  0.0002  0.0004 </r>
        <r>  0.0001  0.0020  0.0044  0.0006  0.0004  0.0001  0.0054  0.0000  0.0004 </r>
        <r>  0.0001  0.0024  0.0040  0.0005  0.0004  0.0001  0.0048  0.0000  0.0009 </r>
        <r>  0.0017  0.0826  0.1185  0.0697  0.0000  0.0000  0.0000  0.0000  0.0000 </r>
        <r>  0.0014  0.0672  0.1024  0.0504  0.0000  0.0000  0.0000  0.0000  0.0000 </r>
        <r>  0.0004  0.0066  0.0456  0.0184  0.0000  0.0000  0.0000  0.0000  0.0000 </r>
        <r>  0.0003  0.0085  0.0405  0.0164  0.0000  0.0000  0.0000  0.0000  0.0000 </r>
       </set>
       <set comment="band 23">
        <r>  0.0001  0.0033  0.0020  0.0018  0.0001  0.0002  0.0026  0.0001  0.0034 </r>
        <r>  0.0002  0.0025  0.0026  0.0013  0.0001  0.0003  0.0033  0.0002  0.0020 </r>
        <r>  0.0006  0.0007  0.0005  0.0020  0.0003  0.0004  0.0006  0.0004  0.0020 </r>
        <r>  0.0004  0.0013  0.0004  0.0029  0.0002  0.0003  0.0005  0.0003  0.0034 </r>
        <r>  0.0006  0.0347  0.0189  0.0457  0.0000  0.0000  0.0000  0.0000  0.0000 </r>
        <r>  0.0003  0.0159  0.0111  0.0295  0.0000  0.0000  0.0000  0.0000  0.0000 </r>
        <r>  0.0012  0.0714  0.0642  0.0605  0.0000  0.0000  0.0000  0.0000  0.0000 </r>
        <r>  0.0017  0.0988  0.0856  0.0904  0.0000  0.0000  0.0000  0.0000  0.0000 </r>
       </set>
       <set comment="band 24">
        <r>  0.0000  0.0014  0.0000  0.0016  0.0000  0.0003  0.0000  0.0003  0.0051 </r>
        <r>  0.0000  0.0014  0.0000  0.0016  0.0000  0.0003  0.0000  0.0003  0.0052 </r>
        <r>  0.0000  0.0014  0.0000  0.0012  0.0000  0.0002  0.0000  0.0003  0.0044 </r>
        <r>  0.0000  0.0014  0.0000  0.0012  0.0000  0.0002  0.0000  0.0003  0.0045 </r>
        <r>  0.0000  0.0858  0.0005  0.0985  0.0000  0.0000  0.0000  0.0000  0.0000 </r>
        <r>  0.0000  0.0849  0.0005  0.0985  0.0000  0.0000  0.0000  0.0000  0.0000 </r>
        <r>  0.0000  0.0858  0.0005  0.0732  0.0000  0.0000  0.0000  0.0000  0.0000 </r>
        <r>  0.0000  0.0849  0.0005  0.0732  0.0000  0.0000  0.0000  0.0000  0.0000 </r>
       </set>
       <set comment="band 25">
        <r>  0.0000  0.0001  0.0018  0.0012  0.0003  0.0002  0.0046  0.0000  0.0006 </r>
        <r>  0.0000  0.0000  0.0010  0.0012  0.0002  0.0002  0.0026  0.0000  0.0012 </r>
        <r>  0.0000  0.0001  0.0010  0.0016  0.0002  0.0003  0.0026  0.0000  0.0019 </r>
        <r>  0.0000  0.0000  0.0018  0.0016  0.0003  0.0003  0.0046  0.0000  0.0012 </r>
        <r>  0.0000  0.0010  0.0625  0.0716  0.0000  0.0000  0.0000  0.0000  0.0000 </r>
        <r>  0.0000  0.0039  0.1082  0.0716  0.0000  0.0000  0.0000  0.0000  0.0000 </r>
        <r>  0.0000  0.0010  0.1082  0.0963  0.0000  0.0000  0.0000  0.0000  0.0000 </r>
        <r>  0.0000  0.0039  0.0625  0.0963  0.0000  0.0000  0.0000  0.0000  0.0000 </r>
       </set>
       <set comment="band 26">
        <r>  0.0000  0.0014  0.0010  0.0000  0.0002  0.0000  0.0027  0.0003  0.0015 </r>
        <r>  0.0000  0.0014  0.0018  0.0000  0.0003  0.0000  0.0046  0.0003  0.0009 </r>
        <r>  0.0000  0.0014  0.0018  0.0000  0.0003  0.0000  0.0046  0.0003  0.0009 </r>
        <r>  0.0000  0.0014  0.0010  0.0000  0.0002  0.0000  0.0027  0.0003  0.0016 </r>
        <r>  0.0000  0.0849  0.1087  0.0016  0.0000  0.0000  0.0000  0.0000  0.0000 </r>
        <r>  0.0000  0.0830  0.0630  0.0016  0.0000  0.0000  0.0000  0.0000  0.0000 </r>
        <r>  0.0000  0.0849  0.0630  0.0022  0.0000  0.0000  0.0000  0.0000  0.0000 </r>
        <r>  0.0000  0.0830  0.1087  0.0022  0.0000  0.0000  0.0000  0.0000  0.0000 </r>
       </set>
       <set comment="band 27">
        <r>  0.0000  0.0003  0.0000  0.0006  0.0000  0.0004  0.0004  0.0002  0.0048 </r>
        <r>  0.0000  0.0003  0.0000  0.0006  0.0000  0.0004  0.0004  0.0002  0.0048 </r>
        <r>  0.0000  0.0003  0.0000  0.0006  0.0000  0.0004  0.0004  0.0002  0.0048 </r>
        <r>  0.0000  0.0003  0.0000  0.0006  0.0000  0.0004  0.0004  0.0002  0.0048 </r>
        <r>  0.0000  0.0574  0.0089  0.1117  0.0000  0.0000  0.0000  0.0000  0.0000 </r>
        <r>  0.0000  0.0574  0.0089  0.1117  0.0000  0.0000  0.0000  0.0000  0.0000 </r>
        <r>  0.0000  0.0574  0.0089  0.1117  0.0000  0.0000  0.0000  0.0000  0.0000 </r>
        <r>  0.0000  0.0574  0.0089  0.1117  0.0000  0.0000  0.0000  0.0000  0.0000 </r>
       </set>
       <set comment="band 28">
        <r>  0.0000  0.0003  0.0005  0.0000  0.0004  0.0000  0.0048  0.0002  0.0004 </r>
        <r>  0.0000  0.0003  0.0005  0.0000  0.0004  0.0000  0.0048  0.0002  0.0004 </r>
        <r>  0.0000  0.0003  0.0005  0.0000  0.0004  0.0000  0.0048  0.0002  0.0004 </r>
        <r>  0.0000  0.0003  0.0005  0.0000  0.0004  0.0000  0.0048  0.0002  0.0004 </r>
        <r>  0.0000  0.0612  0.1098  0.0070  0.0000  0.0000  0.0000  0.0000  0.0000 </r>
        <r>  0.0000  0.0612  0.1098  0.0070  0.0000  0.0000  0.0000  0.0000  0.0000 </r>
        <r>  0.0000  0.0612  0.1098  0.0070  0.0000  0.0000  0.0000  0.0000  0.0000 </r>
        <r>  0.0000  0.0612  0.1098  0.0070  0.0000  0.0000  0.0000  0.0000  0.0000 </r>
       </set>
       <set comment="band 29">
        <r>  0.0175  0.0098  0.0098  0.0098  0.0004  0.0004  0.0000  0.0004  0.0000 </r>
        <r>  0.0175  0.0098  0.0098  0.0098  0.0004  0.0004  0.0000  0.0004  0.0000 </r>
        <r>  0.0175  0.0098  0.0098  0.0098  0.0004  0.0004  0.0000  0.0004  0.0000 </r>
        <r>  0.0175  0.0098  0.0098  0.0098  0.0004  0.0004  0.0000  0.0004  0.0000 </r>
        <r>  0.0337  0.0060  0.0060  0.0060  0.0000  0.0000  0.0000  0.0000  0.0000 </r>
        <r>  0.0337  0.0060  0.0060  0.0060  0.0000  0.0000  0.0000  0.0000  0.0000 </r>
        <r>  0.0337  0.0060  0.0060  0.0060  0.0000  0.0000  0.0000  0.0000  0.0000 </r>
        <r>  0.0337  0.0060  0.0060  0.0060  0.0000  0.0000  0.0000  0.0000  0.0000 </r>
       </set>
       <set comment="band 30">
        <r>  0.0034  0.0157  0.0090  0.0107  0.0026  0.0001  0.0012  0.0000  0.0001 </r>
        <r>  0.0031  0.0126  0.0119  0.0115  0.0026  0.0001  0.0013  0.0001  0.0000 </r>
        <r>  0.0046  0.0120  0.0074  0.0130  0.0027  0.0002  0.0010  0.0002  0.0000 </r>
        <r>  0.0037  0.0108  0.0081  0.0158  0.0027  0.0001  0.0011  0.0001  0.0001 </r>
        <r>  0.0179  0.0013  0.0182  0.0015  0.0000  0.0000  0.0000  0.0000  0.0000 </r>
        <r>  0.0196  0.0010  0.0189  0.0020  0.0000  0.0000  0.0000  0.0000  0.0000 </r>
        <r>  0.0215  0.0022  0.0194  0.0014  0.0000  0.0000  0.0000  0.0000  0.0000 </r>
        <r>  0.0270  0.0029  0.0205  0.0028  0.0000  0.0000  0.0000  0.0000  0.0000 </r>
       </set>
       <set comment="band 31">
        <r>  0.0003  0.0189  0.0002  0.0237  0.0002  0.0012  0.0000  0.0010  0.0017 </r>
        <r>  0.0062  0.0007  0.0223  0.0017  0.0003  0.0018  0.0005  0.0015  0.0000 </r>
        <r>  0.0050  0.0015  0.0269  0.0001  0.0001  0.0017  0.0008  0.0015  0.0000 </r>
        <r>  0.0001  0.0239  0.0013  0.0185  0.0001  0.0012  0.0001  0.0009  0.0017 </r>
        <r>  0.0458  0.0160  0.0055  0.0172  0.0000  0.0000  0.0000  0.0000  0.0000 </r>
        <r>  0.0026  0.0046  0.0011  0.0051  0.0000  0.0000  0.0000  0.0000  0.0000 </r>
        <r>  0.0005  0.0032  0.0006  0.0057  0.0000  0.0000  0.0000  0.0000  0.0000 </r>
        <r>  0.0367  0.0139  0.0031  0.0156  0.0000  0.0000  0.0000  0.0000  0.0000 </r>
       </set>
       <set comment="band 32">
        <r>  0.0056  0.0003  0.0253  0.0006  0.0001  0.0016  0.0006  0.0018  0.0000 </r>
        <r>  0.0001  0.0216  0.0004  0.0218  0.0000  0.0010  0.0000  0.0012  0.0018 </r>
        <r>  0.0001  0.0214  0.0004  0.0219  0.0000  0.0010  0.0000  0.0012  0.0018 </r>
        <r>  0.0057  0.0003  0.0252  0.0006  0.0001  0.0016  0.0006  0.0018  0.0000 </r>
        <r>  0.0006  0.0055  0.0000  0.0040  0.0000  0.0000  0.0000  0.0000  0.0000 </r>
        <r>  0.0421  0.0171  0.0037  0.0155  0.0000  0.0000  0.0000  0.0000  0.0000 </r>
        <r>  0.0424  0.0172  0.0037  0.0156  0.0000  0.0000  0.0000  0.0000  0.0000 </r>
        <r>  0.0006  0.0055  0.0001  0.0040  0.0000  0.0000  0.0000  0.0000  0.0000 </r>
       </set>
       <set comment="band 33">
        <r>  0.0226  0.0004  0.0012  0.0005  0.0088  0.0022  0.0000  0.0045  0.0000 </r>
        <r>  0.0214  0.0004  0.0009  0.0005  0.0101  0.0023  0.0000  0.0027  0.0000 </r>
        <r>  0.0445  0.0010  0.0016  0.0010  0.0067  0.0019  0.0000  0.0012  0.0000 </r>
        <r>  0.0276  0.0006  0.0013  0.0005  0.0081  0.0045  0.0000  0.0018  0.0000 </r>
        <r>  0.0005  0.0307  0.0496  0.0251  0.0000  0.0000  0.0000  0.0000  0.0000 </r>
        <r>  0.0004  0.0495  0.0309  0.0237  0.0000  0.0000  0.0000  0.0000  0.0000 </r>
        <r>  0.0005  0.0237  0.0253  0.0495  0.0000  0.0000  0.0000  0.0000  0.0000 </r>
        <r>  0.0010  0.0251  0.0238  0.0307  0.0000  0.0000  0.0000  0.0000  0.0000 </r>
       </set>
      </set>
     </set>
    </set>
   </array>
  </projected>
 </calculation>
 <structure name="finalpos" >
  <crystal>
   <varray name="basis" >
    <v>       4.20358651       0.00000002       0.00000028 </v>
    <v>       0.00000002       4.20358531      -0.00000102 </v>
    <v>       0.00000028      -0.00000102       4.20358113 </v>
   </varray>
   <i name="volume">     74.27784381 </i>
   <varray name="rec_basis" >
    <v>       0.23789209      -0.00000000      -0.00000002 </v>
    <v>      -0.00000000       0.23789216       0.00000006 </v>
    <v>      -0.00000002       0.00000006       0.23789240 </v>
   </varray>
  </crystal>
  <varray name="positions" >
   <v>       0.99999911       0.00000007       0.00000182 </v>
   <v>       0.00000154       0.49999921       0.50000016 </v>
   <v>       0.50000014       0.00000146       0.49999981 </v>
   <v>       0.49999748       0.49999782       0.99999846 </v>
   <v>       0.49999927       0.00000107       0.99999993 </v>
   <v>       0.50000031       0.49999930       0.50000010 </v>
   <v>       0.00000180       0.00000164       0.49999999 </v>
   <v>       0.00000034       0.49999943       0.99999972 </v>
  </varray>
 </structure>
</modeling>
